ITEM: TIMESTEP
0
ITEM: NUMBER OF ATOMS
145
ITEM: BOX BOUNDS pp pp pp
0.0000000000000000e+00 2.1884000000000000e+01
0.0000000000000000e+00 2.1885999999999999e+01
0.0000000000000000e+00 2.1885000000000002e+01
ITEM: ATOMS id type x y z 
145 2 10.603 9.33 8.575 
9 1 8.524 12.547 12.547 
10 1 1.604 19.466 19.466 
11 1 1.605 19.466 12.547 
12 1 8.524 12.547 19.466 
13 1 1.605 12.547 19.466 
14 1 8.524 19.467 12.547 
15 1 8.524 19.467 19.466 
16 1 1.605 12.547 12.547 
25 1 10.105 10.965 10.965 
26 1 0.023 21.047 21.049 
27 1 0.023 21.047 10.964 
28 1 10.106 10.965 21.047 
29 1 0.023 10.966 21.048 
30 1 10.106 21.049 10.966 
31 1 10.106 21.048 21.049 
32 1 0.024 10.965 10.965 
57 1 5.811 12.218 12.218 
58 1 4.317 19.796 19.795 
59 1 4.318 19.795 12.218 
60 1 5.811 12.219 19.795 
61 1 4.318 12.218 19.795 
62 1 5.811 19.795 12.218 
63 1 5.811 19.796 19.795 
64 1 4.318 12.218 12.218 
65 1 8.853 15.26 12.218 
66 1 1.276 16.754 19.795 
67 1 8.853 16.754 19.795 
68 1 1.276 15.26 12.218 
69 1 1.276 16.754 12.218 
70 1 8.853 15.26 19.796 
71 1 1.276 15.26 19.795 
72 1 8.853 16.753 12.218 
73 1 8.853 12.219 15.26 
74 1 1.276 19.795 16.753 
75 1 1.276 12.218 16.754 
76 1 8.853 19.796 15.26 
77 1 8.853 19.796 16.753 
78 1 1.276 12.218 15.26 
79 1 1.276 19.795 15.26 
80 1 8.853 12.219 16.754 
105 1 7.01 12.317 12.317 
106 1 3.118 19.696 19.696 
107 1 3.119 19.696 12.317 
108 1 7.011 12.317 19.696 
109 1 3.119 12.317 19.696 
110 1 7.01 19.696 12.317 
111 1 7.01 19.697 19.696 
112 1 3.118 12.317 12.317 
113 1 8.754 14.061 12.317 
114 1 1.375 17.953 19.696 
115 1 8.754 17.953 19.696 
116 1 1.375 14.061 12.317 
117 1 1.375 17.953 12.317 
118 1 8.754 14.061 19.696 
119 1 1.375 14.061 19.696 
120 1 8.754 17.953 12.317 
121 1 8.754 12.317 14.061 
122 1 1.375 19.696 17.952 
123 1 1.375 12.317 17.953 
124 1 8.754 19.697 14.061 
125 1 8.754 19.697 17.952 
126 1 1.375 12.317 14.061 
127 1 1.375 19.696 14.061 
128 1 8.754 12.318 17.953 
137 1 9.407 11.664 11.664 
138 1 0.721 20.349 20.35 
139 1 0.721 20.349 11.663 
140 1 9.408 11.664 20.349 
141 1 0.721 11.664 20.35 
142 1 9.407 20.35 11.664 
143 1 9.407 20.35 20.35 
144 1 0.722 11.664 11.663 
1 1 19.466 1.604 1.604 
2 1 12.547 8.524 8.524 
3 1 12.546 8.524 1.604 
4 1 19.466 1.605 8.524 
5 1 12.547 1.604 8.524 
6 1 19.466 8.524 1.605 
7 1 19.466 8.524 8.524 
8 1 12.547 1.604 1.605 
17 1 21.048 0.023 0.022 
18 1 10.965 10.106 10.106 
19 1 10.965 10.106 0.024 
20 1 21.048 0.024 10.107 
21 1 10.965 0.022 10.105 
22 1 21.048 10.105 0.023 
23 1 21.047 10.106 10.106 
24 1 10.965 0.023 0.022 
33 1 16.753 1.275 1.276 
34 1 15.26 8.853 8.853 
35 1 15.26 8.852 1.276 
36 1 16.753 1.275 8.853 
37 1 15.26 1.275 8.853 
38 1 16.753 8.852 1.276 
39 1 16.753 8.853 8.853 
40 1 15.26 1.275 1.276 
41 1 19.795 4.317 1.276 
42 1 12.218 5.811 8.853 
43 1 19.795 5.811 8.853 
44 1 12.218 4.317 1.276 
45 1 12.218 5.811 1.275 
46 1 19.795 4.317 8.853 
47 1 12.218 4.317 8.853 
48 1 19.795 5.811 1.276 
49 1 19.795 1.275 4.317 
50 1 12.218 8.852 5.811 
51 1 12.218 1.276 5.811 
52 1 19.795 8.853 4.318 
53 1 19.795 8.853 5.811 
54 1 12.218 1.275 4.318 
55 1 12.218 8.852 4.317 
56 1 19.795 1.275 5.811 
81 1 17.952 1.374 1.375 
82 1 14.061 8.754 8.754 
83 1 14.06 8.753 1.375 
84 1 17.952 1.374 8.754 
85 1 14.06 1.374 8.754 
86 1 17.952 8.754 1.375 
87 1 17.952 8.754 8.754 
88 1 14.061 1.374 1.375 
89 1 19.696 3.118 1.375 
90 1 12.317 7.01 8.754 
91 1 19.696 7.01 8.754 
92 1 12.317 3.118 1.375 
93 1 12.317 7.01 1.374 
94 1 19.695 3.118 8.754 
95 1 12.317 3.118 8.754 
96 1 19.696 7.01 1.375 
97 1 19.696 1.374 3.118 
98 1 12.317 8.754 7.01 
99 1 12.317 1.375 7.01 
100 1 19.696 8.754 3.118 
101 1 19.696 8.754 7.01 
102 1 12.317 1.374 3.119 
103 1 12.317 8.753 3.118 
104 1 19.696 1.374 7.01 
129 1 20.35 0.722 0.721 
130 1 11.664 9.407 9.407 
131 1 11.663 9.407 0.722 
132 1 20.35 0.722 9.408 
133 1 11.663 0.72 9.407 
134 1 20.35 9.407 0.721 
135 1 20.349 9.407 9.407 
136 1 11.664 0.721 0.721 
ITEM: TIMESTEP
10
ITEM: NUMBER OF ATOMS
145
ITEM: BOX BOUNDS pp pp pp
0.0000000000000000e+00 2.1884000000000000e+01
0.0000000000000000e+00 2.1885999999999999e+01
0.0000000000000000e+00 2.1885000000000002e+01
ITEM: ATOMS id type x y z 
145 2 10.5707 9.35788 8.60948 
9 1 8.52082 12.55 12.5501 
10 1 1.60974 19.4608 19.4606 
11 1 1.61049 19.461 12.5525 
12 1 8.51865 12.5528 19.461 
13 1 1.61043 12.5527 19.4611 
14 1 8.51843 19.4615 12.5523 
15 1 8.51855 19.4617 19.4607 
16 1 1.61035 12.5524 12.5522 
25 1 10.1187 10.9596 10.9646 
26 1 0.0221545 21.0479 21.0497 
27 1 0.0222511 21.0477 10.9635 
28 1 10.1068 10.9646 21.0477 
29 1 0.02217 10.9652 21.0488 
30 1 10.1064 21.0494 10.9652 
31 1 10.1062 21.0485 21.0493 
32 1 0.0229704 10.9643 10.9639 
57 1 5.81811 12.219 12.219 
58 1 4.30929 19.7948 19.7939 
59 1 4.30991 19.7939 12.2191 
60 1 5.81977 12.22 19.7937 
61 1 4.31066 12.2191 19.794 
62 1 5.818 19.794 12.219 
63 1 5.81794 19.795 19.7939 
64 1 4.31026 12.2191 12.2191 
65 1 8.852 15.2528 12.219 
66 1 1.27708 16.7608 19.794 
67 1 8.85189 16.7611 19.794 
68 1 1.27695 15.2543 12.219 
69 1 1.27705 16.7607 12.219 
70 1 8.85198 15.2527 19.7947 
71 1 1.2771 15.2524 19.7939 
72 1 8.8519 16.7613 12.2191 
73 1 8.85188 12.22 15.2525 
74 1 1.27708 19.7939 16.7605 
75 1 1.27705 12.219 16.7608 
76 1 8.85208 19.7951 15.2543 
77 1 8.85195 19.7949 16.7606 
78 1 1.27695 12.219 15.2542 
79 1 1.27705 19.7939 15.2525 
80 1 8.85204 12.22 16.7605 
105 1 7.00483 12.3164 12.3164 
106 1 3.12287 19.6966 19.6966 
107 1 3.12354 19.6965 12.3165 
108 1 7.00516 12.3165 19.6966 
109 1 3.1231 12.3165 19.6965 
110 1 7.0065 19.6967 12.3167 
111 1 7.00596 19.6975 19.6965 
112 1 3.12241 12.3164 12.3164 
113 1 8.75459 14.0661 12.3164 
114 1 1.37444 17.9486 19.6965 
115 1 8.75447 17.9488 19.6965 
116 1 1.37448 14.064 12.3166 
117 1 1.37449 17.9487 12.3165 
118 1 8.75454 14.0654 19.6965 
119 1 1.37446 14.0656 19.6965 
120 1 8.75464 17.9481 12.3164 
121 1 8.7547 12.3164 14.0669 
122 1 1.37434 19.6965 17.9477 
123 1 1.37446 12.3165 17.9487 
124 1 8.75425 19.6975 14.0631 
125 1 8.75446 19.6975 17.948 
126 1 1.37447 12.3166 14.064 
127 1 1.3745 19.6964 14.065 
128 1 8.75448 12.3176 17.9495 
137 1 9.40394 11.6672 11.6676 
138 1 0.717408 20.3526 20.3536 
139 1 0.717616 20.3527 11.6593 
140 1 9.41164 11.6598 20.3528 
141 1 0.717764 11.6604 20.3534 
142 1 9.4109 20.354 11.6606 
143 1 9.41111 20.3538 20.3538 
144 1 0.71851 11.6603 11.6599 
1 1 19.4607 1.60953 1.60951 
2 1 12.597 8.49007 8.4958 
3 1 12.5518 8.51842 1.60942 
4 1 19.4605 1.61002 8.51835 
5 1 12.5527 1.60931 8.51821 
6 1 19.4605 8.51862 1.61026 
7 1 19.4603 8.51847 8.51831 
8 1 12.5525 1.60934 1.61031 
17 1 21.0487 0.0225975 0.0217496 
18 1 10.8988 10.1347 10.1106 
19 1 10.9641 10.1067 0.0230987 
20 1 21.0487 0.0233464 10.1074 
21 1 10.9643 0.0212686 10.1057 
22 1 21.0489 10.1058 0.0220729 
23 1 21.0475 10.1061 10.1061 
24 1 10.9648 0.0224787 0.0216915 
33 1 16.7602 1.27601 1.27705 
34 1 15.2441 8.85097 8.85036 
35 1 15.2509 8.85077 1.27722 
36 1 16.7605 1.27607 8.85191 
37 1 15.2502 1.27627 8.85172 
38 1 16.7597 8.85107 1.27703 
39 1 16.7555 8.85154 8.85173 
40 1 15.2528 1.27604 1.27703 
41 1 19.7939 4.30978 1.27712 
42 1 12.2199 5.8275 8.85019 
43 1 19.7939 5.81858 8.85185 
44 1 12.2191 4.30975 1.27704 
45 1 12.219 5.8173 1.27606 
46 1 19.7938 4.3102 8.85199 
47 1 12.2194 4.31521 8.85181 
48 1 19.794 5.8171 1.27697 
49 1 19.7939 1.27606 4.3101 
50 1 12.22 8.84859 5.82681 
51 1 12.2191 1.27708 5.81885 
52 1 19.7939 8.85188 4.31007 
53 1 19.7939 8.85187 5.8189 
54 1 12.219 1.2761 4.31056 
55 1 12.2195 8.85114 4.31405 
56 1 19.7939 1.27611 5.81875 
81 1 17.9483 1.37358 1.3745 
82 1 14.0494 8.75014 8.74954 
83 1 14.0657 8.75366 1.37437 
84 1 17.9478 1.37358 8.75454 
85 1 14.0663 1.37336 8.75458 
86 1 17.9487 8.75423 1.37446 
87 1 17.9444 8.75471 8.75476 
88 1 14.0647 1.37357 1.37456 
89 1 19.6965 3.12243 1.37447 
90 1 12.3216 7.02088 8.74911 
91 1 19.6965 7.00548 8.75442 
92 1 12.3165 3.12242 1.37453 
93 1 12.3164 7.0068 1.37367 
94 1 19.6957 3.12238 8.75444 
95 1 12.3162 3.12522 8.7547 
96 1 19.6964 7.00673 1.37444 
97 1 19.6965 1.37354 3.12209 
98 1 12.3339 8.74409 7.0167 
99 1 12.3166 1.37465 7.00631 
100 1 19.6966 8.75465 3.12317 
101 1 19.6965 8.75441 7.00574 
102 1 12.3166 1.37351 3.12298 
103 1 12.3162 8.75368 3.12445 
104 1 19.6966 1.37357 7.00534 
129 1 20.3536 0.717762 0.716872 
130 1 11.7153 9.36637 9.37555 
131 1 11.6595 9.4106 0.718477 
132 1 20.3534 0.718265 9.41169 
133 1 11.6597 0.716868 9.41054 
134 1 20.3531 9.4105 0.717782 
135 1 20.3527 9.4112 9.41116 
136 1 11.6599 0.717177 0.717151 
ITEM: TIMESTEP
20
ITEM: NUMBER OF ATOMS
145
ITEM: BOX BOUNDS pp pp pp
0.0000000000000000e+00 2.1884000000000000e+01
0.0000000000000000e+00 2.1885999999999999e+01
0.0000000000000000e+00 2.1885000000000002e+01
ITEM: ATOMS id type x y z 
145 2 10.5489 9.41181 8.70955 
9 1 8.51724 12.5531 12.5527 
10 1 1.61849 19.4524 19.4522 
11 1 1.61893 19.4526 12.5611 
12 1 8.51073 12.5611 19.4535 
13 1 1.61912 12.5613 19.4526 
14 1 8.51031 19.4532 12.5607 
15 1 8.50987 19.4527 19.452 
16 1 1.61802 12.5611 12.5609 
25 1 10.1342 10.965 10.9847 
26 1 0.0207698 21.0493 21.0508 
27 1 0.0209184 21.0492 10.9623 
28 1 10.1088 10.9628 21.0497 
29 1 0.0208083 10.9636 21.0501 
30 1 10.1079 21.051 10.9632 
31 1 10.1074 21.0499 21.0504 
32 1 0.0213708 10.9631 10.9625 
57 1 5.8171 12.2204 12.2203 
58 1 4.31151 19.7931 19.7926 
59 1 4.31181 19.7925 12.2205 
60 1 5.81699 12.221 19.7923 
61 1 4.31168 12.2207 19.7925 
62 1 5.81645 19.7925 12.2205 
63 1 5.81709 19.7935 19.7924 
64 1 4.31033 12.2203 12.2204 
65 1 8.85065 15.2535 12.2204 
66 1 1.27856 16.7591 19.7925 
67 1 8.85034 16.76 19.7926 
68 1 1.27853 15.2548 12.2205 
69 1 1.27851 16.7592 12.2205 
70 1 8.85065 15.2549 19.793 
71 1 1.2785 15.2543 19.7924 
72 1 8.85068 16.7607 12.2203 
73 1 8.85052 12.2211 15.2539 
74 1 1.27849 19.7925 16.759 
75 1 1.27851 12.2205 16.7593 
76 1 8.85047 19.7936 15.2544 
77 1 8.85047 19.7934 16.7595 
78 1 1.27855 12.2205 15.2547 
79 1 1.27847 19.7925 15.2535 
80 1 8.85074 12.2214 16.7605 
105 1 7.00493 12.3173 12.3172 
106 1 3.12214 19.696 19.6957 
107 1 3.12233 19.6957 12.3175 
108 1 7.00638 12.3177 19.696 
109 1 3.12207 12.3175 19.6957 
110 1 7.00604 19.6963 12.3171 
111 1 7.00656 19.6964 19.6954 
112 1 3.12111 12.3172 12.3171 
113 1 8.75363 14.0659 12.3173 
114 1 1.37507 17.9486 19.6959 
115 1 8.75332 17.9495 19.6953 
116 1 1.37507 14.0655 12.317 
117 1 1.37521 17.9486 12.3173 
118 1 8.75363 14.0656 19.696 
119 1 1.37546 14.0648 19.6957 
120 1 8.754 17.9502 12.3171 
121 1 8.75381 12.3176 14.0663 
122 1 1.37504 19.6958 17.9485 
123 1 1.37521 12.3173 17.9488 
124 1 8.75382 19.697 14.0652 
125 1 8.75336 19.6964 17.949 
126 1 1.37504 12.3171 14.0653 
127 1 1.37556 19.6955 14.0639 
128 1 8.75388 12.3182 17.95 
137 1 9.40788 11.6678 11.6709 
138 1 0.716373 20.3541 20.3549 
139 1 0.716527 20.3543 11.6584 
140 1 9.41276 11.6584 20.3545 
141 1 0.71664 11.6592 20.3547 
142 1 9.41251 20.3555 11.6592 
143 1 9.41202 20.3547 20.3547 
144 1 0.716821 11.6583 11.6584 
1 1 19.4522 1.61855 1.61822 
2 1 12.6222 8.46873 8.46067 
3 1 12.5609 8.50971 1.61979 
4 1 19.4518 1.61808 8.5099 
5 1 12.5605 1.62128 8.50984 
6 1 19.4523 8.50991 1.61836 
7 1 19.4469 8.50965 8.50995 
8 1 12.5609 1.6184 1.61899 
17 1 21.0503 0.0211957 0.0204707 
18 1 10.803 10.1289 10.0391 
19 1 10.9629 10.1076 0.0218404 
20 1 21.05 0.0219939 10.1085 
21 1 10.9634 0.0204094 10.1067 
22 1 21.0502 10.1072 0.0207682 
23 1 21.0489 10.1072 10.1071 
24 1 10.9636 0.0210462 0.0206094 
33 1 16.7594 1.27749 1.27859 
34 1 15.2559 8.84953 8.84857 
35 1 15.2527 8.84925 1.27869 
36 1 16.7588 1.27757 8.85045 
37 1 15.2527 1.2776 8.85024 
38 1 16.7584 8.84971 1.27864 
39 1 16.7474 8.84918 8.84923 
40 1 15.2535 1.27753 1.27854 
41 1 19.7925 4.31134 1.27863 
42 1 12.2207 5.81995 8.84724 
43 1 19.7924 5.81835 8.85012 
44 1 12.2207 4.31138 1.2785 
45 1 12.2207 5.817 1.27781 
46 1 19.7921 4.312 8.85061 
47 1 12.2219 4.32376 8.84938 
48 1 19.7924 5.81646 1.27854 
49 1 19.7924 1.27756 4.31129 
50 1 12.2236 8.84466 5.81824 
51 1 12.2208 1.27856 5.81828 
52 1 19.7924 8.85051 4.31253 
53 1 19.7924 8.85016 5.81837 
54 1 12.2205 1.27778 4.31186 
55 1 12.2211 8.84954 4.31921 
56 1 19.7924 1.27757 5.81686 
81 1 17.9489 1.37467 1.37537 
82 1 14.0558 8.74417 8.74581 
83 1 14.0635 8.75255 1.37539 
84 1 17.9483 1.37442 8.75361 
85 1 14.063 1.3745 8.75295 
86 1 17.948 8.75337 1.37499 
87 1 17.9381 8.75363 8.75378 
88 1 14.064 1.3746 1.37557 
89 1 19.6954 3.1218 1.3754 
90 1 12.3306 7.01727 8.7436 
91 1 19.6952 7.00783 8.75297 
92 1 12.3176 3.12197 1.37566 
93 1 12.3172 7.00633 1.3743 
94 1 19.6953 3.1227 8.75366 
95 1 12.3167 3.134 8.7544 
96 1 19.6957 7.0056 1.37499 
97 1 19.6956 1.37449 3.12189 
98 1 12.3684 8.72411 7.00929 
99 1 12.318 1.37557 7.00784 
100 1 19.696 8.75407 3.12309 
101 1 19.6951 8.75302 7.00815 
102 1 12.3176 1.3745 3.12256 
103 1 12.3168 8.75372 3.13012 
104 1 19.6956 1.37447 7.00607 
129 1 20.3541 0.716215 0.715919 
130 1 11.7557 9.34181 9.36431 
131 1 11.6587 9.41176 0.7172 
132 1 20.3541 0.716875 9.41258 
133 1 11.659 0.716009 9.41131 
134 1 20.3542 9.412 0.716573 
135 1 20.3533 9.41164 9.41164 
136 1 11.659 0.71624 0.716271 
ITEM: TIMESTEP
30
ITEM: NUMBER OF ATOMS
145
ITEM: BOX BOUNDS pp pp pp
0.0000000000000000e+00 2.1884000000000000e+01
0.0000000000000000e+00 2.1885999999999999e+01
0.0000000000000000e+00 2.1885000000000002e+01
ITEM: ATOMS id type x y z 
145 2 10.5206 9.41543 8.7073 
9 1 8.51502 12.5558 12.5554 
10 1 1.61823 19.4526 19.4525 
11 1 1.61844 19.4527 12.5603 
12 1 8.51059 12.5611 19.4544 
13 1 1.61845 12.5608 19.4528 
14 1 8.51028 19.4545 12.561 
15 1 8.5103 19.4532 19.4526 
16 1 1.61708 12.5609 12.5609 
25 1 10.1347 10.9671 10.9877 
26 1 0.0231994 21.0472 21.0484 
27 1 0.023133 21.0473 10.9647 
28 1 10.1063 10.9649 21.0474 
29 1 0.0232311 10.9659 21.0479 
30 1 10.1058 21.0488 10.9653 
31 1 10.1054 21.048 21.0483 
32 1 0.0236104 10.965 10.9647 
57 1 5.81597 12.221 12.221 
58 1 4.31282 19.7926 19.792 
59 1 4.31295 19.792 12.221 
60 1 5.81554 12.2214 19.7918 
61 1 4.31312 12.2212 19.792 
62 1 5.81576 19.792 12.2209 
63 1 5.81552 19.7929 19.7919 
64 1 4.31145 12.2208 12.2208 
65 1 8.84994 15.2545 12.2211 
66 1 1.27902 16.7582 19.792 
67 1 8.84988 16.7587 19.7921 
68 1 1.27907 15.2555 12.2209 
69 1 1.27895 16.7583 12.221 
70 1 8.85013 15.2562 19.7924 
71 1 1.27902 15.2555 19.7919 
72 1 8.85021 16.7595 12.2208 
73 1 8.84986 12.2219 15.2543 
74 1 1.27898 19.792 16.7578 
75 1 1.27898 12.221 16.7583 
76 1 8.84999 19.793 15.2554 
77 1 8.84995 19.793 16.7582 
78 1 1.27908 12.221 15.2554 
79 1 1.279 19.792 15.2552 
80 1 8.85023 12.2219 16.7596 
105 1 7.00425 12.3179 12.3177 
106 1 3.12379 19.6951 19.6947 
107 1 3.12387 19.6948 12.3184 
108 1 7.00511 12.3187 19.6951 
109 1 3.12399 12.3184 19.6948 
110 1 7.0048 19.6953 12.3182 
111 1 7.00458 19.6955 19.6945 
112 1 3.12279 12.3181 12.318 
113 1 8.75276 14.0665 12.3181 
114 1 1.3761 17.9473 19.6949 
115 1 8.75242 17.9477 19.6945 
116 1 1.376 14.0664 12.3181 
117 1 1.37621 17.9475 12.3183 
118 1 8.75271 14.0667 19.6952 
119 1 1.37637 14.0663 19.6947 
120 1 8.75321 17.9482 12.3179 
121 1 8.75287 12.3185 14.0665 
122 1 1.37601 19.6949 17.9468 
123 1 1.37619 12.3183 17.9475 
124 1 8.75278 19.696 14.0664 
125 1 8.75252 19.6955 17.9472 
126 1 1.376 12.3181 14.0664 
127 1 1.37636 19.6947 14.066 
128 1 8.75312 12.319 17.9482 
137 1 9.41635 11.6652 11.6728 
138 1 0.717727 20.3526 20.3533 
139 1 0.71786 20.3528 11.6596 
140 1 9.41153 11.66 20.3533 
141 1 0.717953 11.6605 20.3532 
142 1 9.41115 20.3543 11.6601 
143 1 9.41081 20.3534 20.3534 
144 1 0.717835 11.6598 11.6596 
1 1 19.4525 1.61792 1.61796 
2 1 12.6021 8.48886 8.48143 
3 1 12.5599 8.51011 1.62281 
4 1 19.4519 1.61817 8.51015 
5 1 12.5584 1.62538 8.51049 
6 1 19.4522 8.51 1.61891 
7 1 19.4439 8.51066 8.51284 
8 1 12.5606 1.61799 1.61851 
17 1 21.0478 0.0232067 0.0227288 
18 1 10.8103 10.1097 10.0135 
19 1 10.9657 10.1049 0.0240606 
20 1 21.0476 0.0240958 10.1061 
21 1 10.9663 0.0228106 10.1041 
22 1 21.0476 10.1049 0.0232326 
23 1 21.0467 10.1046 10.1044 
24 1 10.9657 0.0230395 0.0228073 
33 1 16.7578 1.27805 1.2791 
34 1 15.2597 8.8495 8.84997 
35 1 15.2539 8.84857 1.27913 
36 1 16.7572 1.27821 8.8499 
37 1 15.2546 1.27788 8.84934 
38 1 16.7573 8.84912 1.27921 
39 1 16.7536 8.84941 8.84912 
40 1 15.255 1.27806 1.27911 
41 1 19.7919 4.3127 1.27912 
42 1 12.2212 5.81842 8.84781 
43 1 19.792 5.81722 8.84927 
44 1 12.2212 4.31283 1.27906 
45 1 12.2214 5.81618 1.27825 
46 1 19.7915 4.31345 8.84999 
47 1 12.2217 4.3191 8.84896 
48 1 19.7919 5.81558 1.27905 
49 1 19.7919 1.27807 4.3127 
50 1 12.2286 8.84482 5.81231 
51 1 12.2218 1.27893 5.81781 
52 1 19.7918 8.84997 4.3134 
53 1 19.7922 8.84939 5.81617 
54 1 12.2211 1.27841 4.31376 
55 1 12.2201 8.84943 4.31518 
56 1 19.7919 1.27813 5.81569 
81 1 17.9468 1.37553 1.37621 
82 1 14.0604 8.74264 8.74399 
83 1 14.0651 8.75156 1.37653 
84 1 17.9462 1.37539 8.75267 
85 1 14.0651 1.37553 8.75227 
86 1 17.9464 8.75233 1.37605 
87 1 17.9442 8.75141 8.75204 
88 1 14.0661 1.37552 1.37642 
89 1 19.6945 3.12356 1.37628 
90 1 12.3326 7.01251 8.74062 
91 1 19.6937 7.00568 8.75242 
92 1 12.3185 3.12395 1.37653 
93 1 12.3183 7.00506 1.3756 
94 1 19.6943 3.12453 8.75273 
95 1 12.3186 3.1286 8.7523 
96 1 19.6946 7.00474 1.37612 
97 1 19.6947 1.37542 3.12369 
98 1 12.3744 8.71672 6.99984 
99 1 12.3188 1.37706 7.00594 
100 1 19.6949 8.75295 3.12455 
101 1 19.6942 8.75257 7.0052 
102 1 12.3183 1.37537 3.1251 
103 1 12.3186 8.75185 3.12475 
104 1 19.6946 1.37547 7.00476 
129 1 20.353 0.717854 0.717469 
130 1 11.7652 9.35124 9.38532 
131 1 11.6602 9.41033 0.719106 
132 1 20.3528 0.718367 9.41102 
133 1 11.6606 0.718222 9.40963 
134 1 20.3528 9.41024 0.718024 
135 1 20.3512 9.41012 9.41023 
136 1 11.6603 0.717753 0.717711 
ITEM: TIMESTEP
40
ITEM: NUMBER OF ATOMS
145
ITEM: BOX BOUNDS pp pp pp
0.0000000000000000e+00 2.1884000000000000e+01
0.0000000000000000e+00 2.1885999999999999e+01
0.0000000000000000e+00 2.1885000000000002e+01
ITEM: ATOMS id type x y z 
145 2 10.5084 9.42043 8.71854 
9 1 8.51377 12.5576 12.5578 
10 1 1.61907 19.4517 19.4516 
11 1 1.61926 19.4518 12.5612 
12 1 8.50976 12.562 19.4532 
13 1 1.61939 12.5617 19.4519 
14 1 8.50954 19.4535 12.5617 
15 1 8.50941 19.4523 19.4518 
16 1 1.61799 12.5617 12.5617 
25 1 10.1403 10.9612 10.9817 
26 1 0.0229226 21.0475 21.0485 
27 1 0.0228956 21.0478 10.9645 
28 1 10.1065 10.9647 21.0475 
29 1 0.022965 10.9655 21.0482 
30 1 10.1063 21.049 10.9649 
31 1 10.1058 21.0483 21.0484 
32 1 0.0234101 10.9647 10.9644 
57 1 5.81562 12.2218 12.2218 
58 1 4.31307 19.792 19.7914 
59 1 4.31335 19.7914 12.2216 
60 1 5.81522 12.222 19.7912 
61 1 4.31342 12.2218 19.7913 
62 1 5.81551 19.7914 12.2215 
63 1 5.81531 19.7923 19.7913 
64 1 4.31225 12.2215 12.2215 
65 1 8.84906 15.2547 12.222 
66 1 1.27962 16.7578 19.7914 
67 1 8.84926 16.7583 19.7914 
68 1 1.27972 15.2558 12.2215 
69 1 1.27958 16.7579 12.2216 
70 1 8.84951 15.2566 19.7917 
71 1 1.27967 15.2557 19.7913 
72 1 8.84951 16.7587 12.2215 
73 1 8.84903 12.2228 15.2546 
74 1 1.27957 19.7914 16.7575 
75 1 1.27962 12.2216 16.758 
76 1 8.84939 19.7924 15.2557 
77 1 8.8493 19.7923 16.7578 
78 1 1.27974 12.2216 15.2558 
79 1 1.27965 19.7914 15.2554 
80 1 8.84952 12.2226 16.7587 
105 1 7.00448 12.3188 12.3186 
106 1 3.12391 19.6937 19.6934 
107 1 3.12414 19.6935 12.3196 
108 1 7.00499 12.3199 19.6939 
109 1 3.12413 12.3197 19.6935 
110 1 7.00481 19.6941 12.3196 
111 1 7.00449 19.6942 19.6933 
112 1 3.12326 12.3194 12.3193 
113 1 8.75152 14.0663 12.3195 
114 1 1.37743 17.9471 19.6935 
115 1 8.75111 17.9475 19.6933 
116 1 1.37722 14.0665 12.3195 
117 1 1.3775 17.9471 12.3196 
118 1 8.75151 14.0668 19.6941 
119 1 1.37765 14.0665 19.6934 
120 1 8.7519 17.9476 12.3192 
121 1 8.75144 12.3201 14.0662 
122 1 1.37733 19.6936 17.9467 
123 1 1.37748 12.3196 17.9472 
124 1 8.7514 19.6947 14.0664 
125 1 8.75126 19.6942 17.947 
126 1 1.37721 12.3195 14.0665 
127 1 1.37761 19.6934 14.0662 
128 1 8.75193 12.3201 17.9474 
137 1 9.42749 11.6618 11.674 
138 1 0.717782 20.3529 20.3535 
139 1 0.717691 20.3531 11.6594 
140 1 9.41142 11.6602 20.3537 
141 1 0.717834 11.6603 20.3535 
142 1 9.41129 20.3548 11.6598 
143 1 9.41079 20.3537 20.3536 
144 1 0.717406 11.6598 11.6595 
1 1 19.4516 1.61895 1.61903 
2 1 12.594 8.49956 8.49241 
3 1 12.5608 8.50941 1.6219 
4 1 19.4514 1.61951 8.50931 
5 1 12.5605 1.62487 8.51032 
6 1 19.4512 8.50912 1.61922 
7 1 19.4452 8.5102 8.51057 
8 1 12.5614 1.61902 1.61991 
17 1 21.0479 0.0229302 0.0225782 
18 1 10.794 10.1091 10.004 
19 1 10.9656 10.1051 0.0234249 
20 1 21.0477 0.0238022 10.106 
21 1 10.9664 0.0225279 10.1041 
22 1 21.0476 10.1051 0.0230069 
23 1 21.0473 10.1047 10.1047 
24 1 10.9655 0.0229553 0.0227838 
33 1 16.7575 1.27872 1.27973 
34 1 15.2594 8.84775 8.84938 
35 1 15.2548 8.84791 1.27956 
36 1 16.7569 1.2788 8.84917 
37 1 15.254 1.27834 8.84841 
38 1 16.7571 8.84846 1.27978 
39 1 16.7533 8.84923 8.84909 
40 1 15.2552 1.27873 1.27978 
41 1 19.7912 4.31308 1.27977 
42 1 12.2233 5.82008 8.84606 
43 1 19.7915 5.81605 8.8486 
44 1 12.2219 4.31297 1.27968 
45 1 12.222 5.81533 1.27869 
46 1 19.7909 4.31358 8.8492 
47 1 12.222 4.32009 8.84845 
48 1 19.7912 5.81521 1.27966 
49 1 19.7912 1.27875 4.31313 
50 1 12.2363 8.84166 5.81252 
51 1 12.2225 1.27935 5.81689 
52 1 19.7913 8.84933 4.3136 
53 1 19.7917 8.84862 5.81662 
54 1 12.2219 1.27906 4.31415 
55 1 12.22 8.84985 4.31436 
56 1 19.7912 1.27878 5.81542 
81 1 17.9466 1.37682 1.3775 
82 1 14.0602 8.73951 8.74138 
83 1 14.0659 8.75048 1.37813 
84 1 17.946 1.37684 8.7514 
85 1 14.0652 1.37768 8.75113 
86 1 17.9464 8.75097 1.37753 
87 1 17.9443 8.75029 8.75073 
88 1 14.066 1.37689 1.37777 
89 1 19.6933 3.12385 1.37758 
90 1 12.3362 7.01471 8.73708 
91 1 19.6919 7.00512 8.75148 
92 1 12.3198 3.12377 1.37791 
93 1 12.3194 7.00435 1.37728 
94 1 19.6928 3.1245 8.75136 
95 1 12.3197 3.13034 8.75107 
96 1 19.6933 7.00445 1.37754 
97 1 19.6934 1.37674 3.12395 
98 1 12.38 8.70946 7.00118 
99 1 12.3197 1.37892 7.00575 
100 1 19.6935 8.75163 3.12461 
101 1 19.6923 8.75137 7.00514 
102 1 12.3196 1.37686 3.12496 
103 1 12.3191 8.75041 3.12422 
104 1 19.6932 1.37687 7.0046 
129 1 20.3531 0.717613 0.717443 
130 1 11.7723 9.34735 9.38198 
131 1 11.6597 9.41079 0.719332 
132 1 20.3526 0.718246 9.41116 
133 1 11.6601 0.719035 9.40999 
134 1 20.3529 9.41049 0.718125 
135 1 20.3506 9.41074 9.41079 
136 1 11.6604 0.717543 0.717718 
ITEM: TIMESTEP
50
ITEM: NUMBER OF ATOMS
145
ITEM: BOX BOUNDS pp pp pp
0.0000000000000000e+00 2.1884000000000000e+01
0.0000000000000000e+00 2.1885999999999999e+01
0.0000000000000000e+00 2.1885000000000002e+01
ITEM: ATOMS id type x y z 
145 2 10.5036 9.4208 8.72022 
9 1 8.51496 12.5571 12.5576 
10 1 1.61927 19.4515 19.4515 
11 1 1.61941 19.4517 12.5614 
12 1 8.50953 12.5623 19.4529 
13 1 1.61953 12.5619 19.4517 
14 1 8.50942 19.4533 12.5618 
15 1 8.50921 19.4521 19.4516 
16 1 1.61826 12.5618 12.5618 
25 1 10.1412 10.9602 10.9805 
26 1 0.02302 21.0475 21.0484 
27 1 0.0229524 21.0478 10.9646 
28 1 10.1064 10.9649 21.0475 
29 1 0.0230639 10.9656 21.0481 
30 1 10.1061 21.049 10.9649 
31 1 10.1056 21.0483 21.0484 
32 1 0.0235403 10.9648 10.9645 
57 1 5.81601 12.2222 12.2221 
58 1 4.31307 19.7917 19.7911 
59 1 4.31337 19.7911 12.2219 
60 1 5.81548 12.2223 19.7909 
61 1 4.31339 12.2221 19.791 
62 1 5.81557 19.7911 12.2218 
63 1 5.81531 19.792 19.791 
64 1 4.3124 12.2218 12.2218 
65 1 8.84865 15.2544 12.2224 
66 1 1.27989 16.7578 19.7911 
67 1 8.84898 16.7584 19.7911 
68 1 1.27999 15.2557 12.2218 
69 1 1.27987 16.7579 12.2219 
70 1 8.84919 15.2562 19.7914 
71 1 1.27994 15.2557 19.7911 
72 1 8.84918 16.7586 12.2219 
73 1 8.84862 12.2232 15.2542 
74 1 1.27984 19.7911 16.7576 
75 1 1.27991 12.2219 16.7579 
76 1 8.84909 19.7921 15.2556 
77 1 8.84902 19.792 16.7578 
78 1 1.28001 12.2218 15.2557 
79 1 1.27993 19.7911 15.2553 
80 1 8.84919 12.2229 16.7585 
105 1 7.00494 12.3191 12.319 
106 1 3.12386 19.6932 19.6929 
107 1 3.1241 19.693 12.3201 
108 1 7.00501 12.3205 19.6934 
109 1 3.1241 12.3202 19.693 
110 1 7.00494 19.6935 12.3201 
111 1 7.00459 19.6937 19.6928 
112 1 3.12337 12.3199 12.3199 
113 1 8.75108 14.0659 12.3201 
114 1 1.37795 17.9471 19.693 
115 1 8.75061 17.9476 19.6928 
116 1 1.37772 14.0664 12.32 
117 1 1.378 17.9472 12.3201 
118 1 8.75102 14.0669 19.6937 
119 1 1.37815 14.0664 19.6929 
120 1 8.75138 17.9475 12.3197 
121 1 8.75087 12.3208 14.0659 
122 1 1.37784 19.693 17.9468 
123 1 1.378 12.3201 17.9472 
124 1 8.75087 19.6942 14.0663 
125 1 8.75075 19.6937 17.9471 
126 1 1.37771 12.3201 14.0664 
127 1 1.37811 19.6929 14.0661 
128 1 8.75142 12.3206 17.9473 
137 1 9.43072 11.6609 11.6745 
138 1 0.717828 20.3529 20.3534 
139 1 0.717807 20.3531 11.6595 
140 1 9.41126 11.6602 20.3535 
141 1 0.717907 11.6603 20.3534 
142 1 9.41137 20.3546 11.6598 
143 1 9.41085 20.3537 20.3534 
144 1 0.717473 11.6598 11.6596 
1 1 19.4514 1.61914 1.61926 
2 1 12.5909 8.50246 8.49545 
3 1 12.5609 8.50919 1.62176 
4 1 19.4509 1.61962 8.50918 
5 1 12.5607 1.62508 8.51009 
6 1 19.4511 8.50898 1.6196 
7 1 19.4453 8.50997 8.51032 
8 1 12.5616 1.61911 1.62001 
17 1 21.0478 0.022972 0.0227031 
18 1 10.7924 10.107 10.0005 
19 1 10.9656 10.1051 0.0235608 
20 1 21.0475 0.0237969 10.1059 
21 1 10.9665 0.0226172 10.1039 
22 1 21.0476 10.105 0.0231998 
23 1 21.0473 10.1046 10.1045 
24 1 10.9657 0.0229834 0.0228163 
33 1 16.7575 1.27901 1.28001 
34 1 15.2593 8.84678 8.84881 
35 1 15.2549 8.8477 1.27986 
36 1 16.7569 1.27906 8.84881 
37 1 15.2539 1.27868 8.84813 
38 1 16.7572 8.84817 1.28003 
39 1 16.7535 8.84901 8.849 
40 1 15.2552 1.27903 1.28005 
41 1 19.7909 4.31303 1.28004 
42 1 12.2244 5.82122 8.84495 
43 1 19.7912 5.81619 8.84839 
44 1 12.2222 4.31289 1.27991 
45 1 12.2223 5.81523 1.27901 
46 1 19.7907 4.31352 8.84888 
47 1 12.2222 4.32032 8.84814 
48 1 19.7909 5.81522 1.27995 
49 1 19.791 1.27903 4.31311 
50 1 12.2393 8.83962 5.81294 
51 1 12.2228 1.27971 5.81701 
52 1 19.7911 8.84901 4.31356 
53 1 19.7914 8.84839 5.81664 
54 1 12.2222 1.27933 4.31424 
55 1 12.2204 8.84981 4.31403 
56 1 19.7909 1.27906 5.8155 
81 1 17.9467 1.37734 1.37802 
82 1 14.06 8.73884 8.74103 
83 1 14.0657 8.74995 1.37867 
84 1 17.946 1.37742 8.75088 
85 1 14.065 1.37841 8.75053 
86 1 17.9465 8.75043 1.37806 
87 1 17.9444 8.74985 8.75011 
88 1 14.0659 1.3774 1.37831 
89 1 19.6928 3.12375 1.3781 
90 1 12.3372 7.01634 8.73649 
91 1 19.6913 7.00514 8.7509 
92 1 12.3203 3.12369 1.37844 
93 1 12.3199 7.00448 1.37784 
94 1 19.6923 3.12432 8.75081 
95 1 12.3202 3.13074 8.75057 
96 1 19.6927 7.00457 1.37806 
97 1 19.6929 1.37727 3.12388 
98 1 12.3815 8.70808 7.00266 
99 1 12.3203 1.37957 7.00597 
100 1 19.6929 8.75108 3.12449 
101 1 19.6916 8.7508 7.00523 
102 1 12.3201 1.37738 3.12505 
103 1 12.3192 8.75001 3.12445 
104 1 19.6927 1.37744 7.00471 
129 1 20.353 0.717684 0.717539 
130 1 11.7712 9.34816 9.38195 
131 1 11.6598 9.41069 0.719193 
132 1 20.3527 0.71835 9.41094 
133 1 11.6602 0.719417 9.41004 
134 1 20.3527 9.41036 0.717991 
135 1 20.3503 9.41076 9.41087 
136 1 11.6603 0.717645 0.717947 
ITEM: TIMESTEP
60
ITEM: NUMBER OF ATOMS
145
ITEM: BOX BOUNDS pp pp pp
0.0000000000000000e+00 2.1884000000000000e+01
0.0000000000000000e+00 2.1885999999999999e+01
0.0000000000000000e+00 2.1885000000000002e+01
ITEM: ATOMS id type x y z 
145 2 10.4955 9.4204 8.7222 
9 1 8.51724 12.5561 12.5571 
10 1 1.61954 19.4514 19.4514 
11 1 1.61967 19.4515 12.5615 
12 1 8.50932 12.5625 19.4524 
13 1 1.61977 12.562 19.4516 
14 1 8.5094 19.4529 12.5618 
15 1 8.50912 19.452 19.4514 
16 1 1.61852 12.562 12.562 
25 1 10.1428 10.959 10.9791 
26 1 0.0232332 21.0475 21.0484 
27 1 0.0231536 21.0478 10.9646 
28 1 10.1061 10.9651 21.0475 
29 1 0.0232732 10.9656 21.0482 
30 1 10.1062 21.0491 10.9649 
31 1 10.1057 21.0482 21.0482 
32 1 0.0234747 10.965 10.9647 
57 1 5.81665 12.223 12.2229 
58 1 4.31331 19.7911 19.7905 
59 1 4.31364 19.7905 12.2225 
60 1 5.81523 12.2228 19.7904 
61 1 4.31362 12.2227 19.7905 
62 1 5.8155 19.7906 12.2225 
63 1 5.81517 19.7914 19.7904 
64 1 4.31309 12.2225 12.2225 
65 1 8.84777 15.2539 12.2232 
66 1 1.28044 16.7576 19.7906 
67 1 8.84841 16.7581 19.7905 
68 1 1.28054 15.2559 12.2224 
69 1 1.28046 16.7577 12.2225 
70 1 8.84859 15.2563 19.7908 
71 1 1.28051 15.2559 19.7905 
72 1 8.84847 16.7579 12.2226 
73 1 8.84776 12.224 15.2539 
74 1 1.28039 19.7905 16.7574 
75 1 1.28049 12.2225 16.7577 
76 1 8.84847 19.7915 15.2557 
77 1 8.84845 19.7914 16.7575 
78 1 1.28056 12.2224 15.2559 
79 1 1.2805 19.7905 15.2555 
80 1 8.84852 12.2235 16.7576 
105 1 7.00574 12.3195 12.3195 
106 1 3.12401 19.6924 19.6921 
107 1 3.12431 19.6921 12.321 
108 1 7.00501 12.3214 19.6925 
109 1 3.12434 12.3211 19.6922 
110 1 7.0049 19.6927 12.321 
111 1 7.00445 19.6928 19.6919 
112 1 3.12406 12.3207 12.3207 
113 1 8.75048 14.0653 12.3212 
114 1 1.37884 17.947 19.6921 
115 1 8.74975 17.9474 19.6919 
116 1 1.3786 14.0665 12.3209 
117 1 1.37888 17.947 12.3209 
118 1 8.75013 14.0669 19.6928 
119 1 1.37903 14.0665 19.6921 
120 1 8.75048 17.9469 12.3207 
121 1 8.74998 12.3221 14.0653 
122 1 1.37873 19.6922 17.9467 
123 1 1.37889 12.321 17.947 
124 1 8.74998 19.6933 14.0663 
125 1 8.74988 19.6928 17.9468 
126 1 1.37859 12.321 14.0665 
127 1 1.37897 19.6921 14.0662 
128 1 8.75053 12.3215 17.9467 
137 1 9.43596 11.6599 11.6763 
138 1 0.717658 20.3528 20.3531 
139 1 0.717661 20.3531 11.6598 
140 1 9.41133 11.6604 20.3532 
141 1 0.717779 11.6604 20.3531 
142 1 9.41144 20.3544 11.6597 
143 1 9.41059 20.3537 20.3535 
144 1 0.71787 11.6599 11.6596 
1 1 19.4512 1.61935 1.61951 
2 1 12.5867 8.50646 8.49985 
3 1 12.5612 8.5089 1.62148 
4 1 19.4506 1.61975 8.50895 
5 1 12.5609 1.62555 8.50998 
6 1 19.451 8.50884 1.61987 
7 1 19.4454 8.50982 8.51016 
8 1 12.5618 1.61921 1.62029 
17 1 21.0478 0.0230139 0.0228846 
18 1 10.7875 10.1049 9.99538 
19 1 10.9656 10.1052 0.0236535 
20 1 21.0475 0.0237908 10.1056 
21 1 10.9666 0.0227937 10.1037 
22 1 21.0475 10.1051 0.0233344 
23 1 21.0473 10.1046 10.1045 
24 1 10.9658 0.0229925 0.0228929 
33 1 16.7573 1.2796 1.28058 
34 1 15.2589 8.84481 8.84762 