ITEM: TIMESTEP
0
ITEM: NUMBER OF ATOMS
58
ITEM: BOX BOUNDS pp pp pp
0.0000000000000000e+00 3.2808000000000000e+01
0.0000000000000000e+00 1.7780000000000001e+01
0.0000000000000000e+00 2.4729999999999999e+00
ITEM: ATOMS id type x y z 
13 1 7.043 0.849 2.464 
29 1 7.397 1.432 1.228 
37 1 8.035 2.733 1.228 
57 2 3.973 0.968 1.228 
58 3 3.973 1.944 1.228 
1 1 6.173 17.398 2.464 
5 1 5.371 17.398 1.228 
9 1 3.973 17.398 1.228 
16 1 7.043 16.167 2.464 
32 1 7.397 15.584 1.228 
40 1 8.035 14.283 1.228 
45 1 3.236 17.398 2.464 
49 1 1.81 17.398 2.464 
53 1 1.083 17.398 1.228 
4 1 10.968 8.508 2.464 
8 1 11.771 8.508 1.228 
12 1 13.168 8.508 1.228 
18 1 10.098 7.277 2.464 
21 1 8.308 3.392 2.464 
26 1 8.833 4.734 2.464 
34 1 9.745 6.694 1.228 
42 1 9.106 5.393 1.228 
48 1 13.906 8.508 2.464 
52 1 15.331 8.508 2.464 
56 1 16.058 8.508 1.228 
19 1 10.098 9.739 2.464 
24 1 8.308 13.624 2.464 
27 1 8.833 12.282 2.464 
35 1 9.745 10.322 1.228 
43 1 9.106 11.623 1.228 
3 1 22.577 8.508 2.464 
7 1 21.775 8.508 1.228 
11 1 20.377 8.508 1.228 
20 1 23.447 7.277 2.464 
36 1 23.801 6.694 1.228 
44 1 24.439 5.393 1.228 
47 1 19.64 8.508 2.464 
51 1 18.214 8.508 2.464 
55 1 17.487 8.508 1.228 
17 1 23.447 9.739 2.464 
33 1 23.801 10.322 1.228 
41 1 24.439 11.623 1.228 
15 1 26.502 0.849 2.464 
23 1 25.237 3.392 2.464 
28 1 24.712 4.734 2.464 
31 1 26.149 1.432 1.228 
39 1 25.511 2.733 1.228 
2 1 27.373 17.398 2.464 
6 1 28.175 17.398 1.228 
10 1 29.572 17.398 1.228 
14 1 26.502 16.167 2.464 
22 1 25.237 13.624 2.464 
25 1 24.712 12.282 2.464 
30 1 26.149 15.584 1.228 
38 1 25.511 14.283 1.228 
46 1 30.31 17.398 2.464 
50 1 31.735 17.398 2.464 
54 1 32.462 17.398 1.228 
ITEM: TIMESTEP
10
ITEM: NUMBER OF ATOMS
58
ITEM: BOX BOUNDS pp pp pp
0.0000000000000000e+00 3.2808000000000000e+01
0.0000000000000000e+00 1.7780000000000001e+01
0.0000000000000000e+00 2.4729999999999999e+00
ITEM: ATOMS id type x y z 
13 1 7.0734 0.831872 2.4643 
29 1 7.42891 1.44005 1.22777 
37 1 8.04227 2.6965 1.22772 
57 2 3.93445 1.15089 1.2279 
58 3 3.97232 2.03504 1.22801 
1 1 6.15602 17.4011 2.46425 
5 1 5.35358 17.3057 1.22767 
9 1 3.93255 17.3741 1.22777 
16 1 7.09695 16.1867 2.46428 
32 1 7.4338 15.5748 1.22776 
40 1 8.04569 14.3139 1.22771 
45 1 3.24046 17.2551 2.46432 
49 1 1.82869 17.3958 2.46429 
53 1 1.09973 17.4027 1.22772 
4 1 10.967 8.50781 2.46425 
8 1 11.8002 8.50792 1.22768 
12 1 13.2041 8.50801 1.22773 
18 1 10.0607 7.28763 2.46429 
21 1 8.3078 3.37003 2.46427 
26 1 8.83174 4.75274 2.46427 
34 1 9.70364 6.66836 1.22776 
42 1 9.09649 5.42769 1.22772 
48 1 13.9087 8.508 2.46429 
52 1 15.3246 8.508 2.46428 
56 1 16.0505 8.508 1.22771 
19 1 10.0609 9.72764 2.46429 
24 1 8.31028 13.6412 2.46427 
27 1 8.83591 12.2523 2.46427 
35 1 9.70384 10.3472 1.22776 
43 1 9.09622 11.5885 1.22772 
3 1 22.5735 8.508 2.46425 
7 1 21.7473 8.508 1.22768 
11 1 20.345 8.508 1.22773 
20 1 23.4842 7.28711 2.46429 
36 1 23.8403 6.67186 1.22776 
44 1 24.4468 5.43118 1.22772 
47 1 19.6411 8.508 2.46429 
51 1 18.228 8.508 2.46428 
55 1 17.4894 8.508 1.22771 
17 1 23.4842 9.72889 2.46429 
33 1 23.8403 10.3441 1.22776 
41 1 24.4468 11.5848 1.22772 
15 1 26.4642 0.839547 2.46429 
23 1 25.2376 3.36839 2.46427 
28 1 24.7113 4.75741 2.46427 
31 1 26.1099 1.45413 1.22776 
39 1 25.5031 2.69531 1.22772 
2 1 27.3726 17.398 2.46425 
6 1 28.1996 17.398 1.22768 
10 1 29.5973 17.398 1.22773 
14 1 26.4642 16.1765 2.46429 
22 1 25.2376 13.6476 2.46427 
25 1 24.7113 12.2586 2.46427 
30 1 26.1099 15.5619 1.22776 
38 1 25.5031 14.3207 1.22772 
46 1 30.3274 17.398 2.46429 
50 1 31.7457 17.398 2.46428 
54 1 32.4541 17.3988 1.22771 
ITEM: TIMESTEP
20
ITEM: NUMBER OF ATOMS
58
ITEM: BOX BOUNDS pp pp pp
0.0000000000000000e+00 3.2808000000000000e+01
0.0000000000000000e+00 1.7780000000000001e+01
0.0000000000000000e+00 2.4729999999999999e+00
ITEM: ATOMS id type x y z 
13 1 7.06633 0.82747 2.46427 
29 1 7.43772 1.41898 1.22777 
37 1 8.05489 2.6846 1.22776 
57 2 3.93692 1.28673 1.22792 
58 3 3.96979 2.16021 1.22802 
1 1 6.18489 17.4005 2.46422 
5 1 5.34789 17.3095 1.22775 
9 1 3.94849 17.1913 1.22777 
16 1 7.13167 16.2004 2.46426 
32 1 7.46197 15.576 1.22776 
40 1 8.05502 14.3319 1.22776 
45 1 3.26443 17.1846 2.46427 
49 1 1.83897 17.3939 2.46424 
53 1 1.11018 17.4188 1.22777 
4 1 10.9717 8.50202 2.46422 
8 1 11.7851 8.50681 1.22774 
12 1 13.2132 8.50811 1.22777 
18 1 10.0395 7.28533 2.46425 
21 1 8.31187 3.3584 2.46424 
26 1 8.8217 4.75033 2.46424 
34 1 9.67936 6.66954 1.22777 
42 1 9.07935 5.43089 1.22776 
48 1 13.9109 8.50803 2.46424 
52 1 15.3025 8.508 2.46423 
56 1 16.0551 8.508 1.22777 
19 1 10.0397 9.72675 2.46425 
24 1 8.31302 13.6567 2.46423 
27 1 8.8263 12.2513 2.46424 
35 1 9.67847 10.3467 1.22777 
43 1 9.08419 11.5709 1.22776 
3 1 22.5723 8.508 2.46422 
7 1 21.7713 8.508 1.22774 
11 1 20.3414 8.508 1.22776 
20 1 23.4987 7.29153 2.46426 
36 1 23.8581 6.68323 1.22777 
44 1 24.4639 5.43378 1.22776 
47 1 19.6258 8.508 2.46424 
51 1 18.2579 8.508 2.46423 
55 1 17.5054 8.508 1.22776 
17 1 23.4987 9.72447 2.46426 
33 1 23.8581 10.3328 1.22777 
41 1 24.4639 11.5822 1.22776 
15 1 26.4441 0.838208 2.46426 
23 1 25.2273 3.37191 2.46424 
28 1 24.7204 4.75705 2.46424 
31 1 26.0864 1.45215 1.22777 
39 1 25.4849 2.69451 1.22776 
2 1 27.366 17.398 2.46422 
6 1 28.1699 17.398 1.22774 
10 1 29.5942 17.398 1.22776 
14 1 26.4441 16.1778 2.46426 
22 1 25.2273 13.6441 2.46424 
25 1 24.7204 12.2589 2.46424 
30 1 26.0864 15.5639 1.22777 
38 1 25.4849 14.3215 1.22776 
46 1 30.3497 17.3976 2.46424 
50 1 31.7223 17.3975 2.46423 
54 1 32.4518 17.4022 1.22776 
ITEM: TIMESTEP
30
ITEM: NUMBER OF ATOMS
58
ITEM: BOX BOUNDS pp pp pp
0.0000000000000000e+00 3.2808000000000000e+01
0.0000000000000000e+00 1.7780000000000001e+01
0.0000000000000000e+00 2.4729999999999999e+00
ITEM: ATOMS id type x y z 
13 1 7.06948 0.837513 2.46427 
29 1 7.46014 1.4335 1.22777 
37 1 8.06642 2.6785 1.22774 
57 2 3.93328 1.2886 1.22792 
58 3 3.9717 2.20137 1.22802 
1 1 6.1801 17.3864 2.46425 
5 1 5.34307 17.3161 1.22774 
9 1 3.96443 17.1433 1.22777 
16 1 7.14785 16.2008 2.46426 
32 1 7.48257 15.5767 1.22775 
40 1 8.06912 14.326 1.22774 
45 1 3.27893 17.1629 2.46427 
49 1 1.83797 17.3969 2.46427 
53 1 1.09785 17.4327 1.22775 
4 1 10.9638 8.50438 2.46424 
8 1 11.7769 8.50634 1.22773 
12 1 13.1903 8.5082 1.22774 
18 1 10.0379 7.29304 2.46426 
21 1 8.31934 3.36061 2.46425 
26 1 8.81639 4.75319 2.46425 
34 1 9.67164 6.68444 1.22776 
42 1 9.06876 5.4358 1.22774 
48 1 13.9258 8.50812 2.46426 
52 1 15.3102 8.50801 2.46426 
56 1 16.042 8.508 1.22774 
19 1 10.0388 9.71793 2.46426 
24 1 8.32152 13.6489 2.46425 
27 1 8.81956 12.2521 2.46425 
35 1 9.67309 10.327 1.22776 
43 1 9.07085 11.5724 1.22774 
3 1 22.5761 8.508 2.46424 
7 1 21.7646 8.508 1.22773 
11 1 20.3488 8.508 1.22774 
20 1 23.5062 7.29431 2.46426 
36 1 23.872 6.68886 1.22776 
44 1 24.4738 5.44295 1.22774 
47 1 19.6183 8.508 2.46426 
51 1 18.2478 8.508 2.46426 
55 1 17.5139 8.508 1.22774 
17 1 23.5062 9.72169 2.46426 
33 1 23.872 10.3271 1.22776 
41 1 24.4738 11.5731 1.22774 
15 1 26.4336 0.836635 2.46426 
23 1 25.2221 3.36771 2.46425 
28 1 24.7248 4.76328 2.46425 
31 1 26.0743 1.44273 1.22776 
39 1 25.474 2.68817 1.22774 
2 1 27.3655 17.398 2.46424 
6 1 28.161 17.398 1.22773 
10 1 29.5905 17.398 1.22774 
14 1 26.4336 16.1794 2.46426 
22 1 25.2221 13.6483 2.46425 
25 1 24.7248 12.2527 2.46425 
30 1 26.0743 15.5733 1.22776 
38 1 25.474 14.3278 1.22774 
46 1 30.3576 17.3969 2.46426 
50 1 31.6997 17.3968 2.46426 
54 1 32.4619 17.4065 1.22774 
ITEM: TIMESTEP
40
ITEM: NUMBER OF ATOMS
58
ITEM: BOX BOUNDS pp pp pp
0.0000000000000000e+00 3.2808000000000000e+01
0.0000000000000000e+00 1.7780000000000001e+01
0.0000000000000000e+00 2.4729999999999999e+00
ITEM: ATOMS id type x y z 
13 1 7.07461 0.849213 2.46426 
29 1 7.47955 1.4288 1.22776 
37 1 8.09074 2.6711 1.22775 
57 2 3.92901 1.31584 1.22792 
58 3 3.97337 2.22604 1.22803 
1 1 6.19328 17.3859 2.46425 
5 1 5.35714 17.3209 1.22775 
9 1 3.99639 17.0841 1.22776 
16 1 7.17065 16.2064 2.46425 
32 1 7.5121 15.5914 1.22775 
40 1 8.08966 14.332 1.22774 
45 1 3.255 17.1147 2.46427 
49 1 1.81865 17.4068 2.46426 
53 1 1.10431 17.4554 1.22775 
4 1 10.9588 8.50327 2.46424 
8 1 11.7502 8.50474 1.22774 
12 1 13.182 8.50851 1.22775 
18 1 10.0246 7.29302 2.46426 
21 1 8.33148 3.35693 2.46425 
26 1 8.8057 4.75804 2.46425 
34 1 9.64689 6.69262 1.22775 
42 1 9.04712 5.44418 1.22775 
48 1 13.9537 8.50837 2.46425 
52 1 15.3103 8.50806 2.46426 
56 1 16.0384 8.50798 1.22775 
19 1 10.0263 9.71472 2.46426 
24 1 8.33159 13.6502 2.46425 
27 1 8.80872 12.2455 2.46425 
35 1 9.64921 10.3159 1.22775 
43 1 9.0489 11.5634 1.22775 
3 1 22.5807 8.508 2.46424 
7 1 21.7749 8.508 1.22774 
11 1 20.3562 8.508 1.22775 
20 1 23.5175 7.29655 2.46426 
36 1 23.8954 6.70092 1.22775 
44 1 24.4961 5.45192 1.22775 
47 1 19.6104 8.508 2.46425 
51 1 18.2459 8.508 2.46425 
55 1 17.5177 8.50799 1.22775 
17 1 23.5175 9.71945 2.46426 
33 1 23.8954 10.3151 1.22775 
41 1 24.4961 11.5641 1.22775 
15 1 26.422 0.831344 2.46426 
23 1 25.2105 3.36472 2.46425 
28 1 24.7369 4.76517 2.46425 
31 1 26.0523 1.42745 1.22775 
39 1 25.4512 2.68195 1.22775 
2 1 27.3601 17.398 2.46424 
6 1 28.1506 17.3982 1.22774 
10 1 29.5789 17.3979 1.22775 
14 1 26.422 16.1847 2.46426 
22 1 25.2105 13.6513 2.46425 
25 1 24.7369 12.2508 2.46425 
30 1 26.0523 15.5886 1.22775 
38 1 25.4512 14.3341 1.22775 
46 1 30.3509 17.3943 2.46425 
50 1 31.7042 17.3952 2.46425 
54 1 32.464 17.4161 1.22774 
ITEM: TIMESTEP
50
ITEM: NUMBER OF ATOMS
58
ITEM: BOX BOUNDS pp pp pp
0.0000000000000000e+00 3.2808000000000000e+01
0.0000000000000000e+00 1.7780000000000001e+01
0.0000000000000000e+00 2.4729999999999999e+00
ITEM: ATOMS id type x y z 
13 1 7.07291 0.848372 2.46426 
29 1 7.49439 1.41529 1.22776 
37 1 8.12064 2.66186 1.22775 
57 2 3.92561 1.33428 1.22792 
58 3 3.97494 2.24917 1.22803 
1 1 6.18643 17.3874 2.46425 
5 1 5.36972 17.3173 1.22775 
9 1 3.99692 17.0375 1.22776 
16 1 7.18298 16.2216 2.46425 
32 1 7.53982 15.6157 1.22775 
40 1 8.11411 14.3411 1.22775 
45 1 3.2428 17.0638 2.46426 
49 1 1.83969 17.4071 2.46426 
53 1 1.11228 17.4829 1.22776 
4 1 10.9549 8.50233 2.46424 
8 1 11.7476 8.50307 1.22775 
12 1 13.1779 8.50895 1.22775 
18 1 10.0116 7.29401 2.46425 
21 1 8.34798 3.35227 2.46425 
26 1 8.79189 4.76333 2.46425 
34 1 9.6216 6.70622 1.22775 
42 1 9.01957 5.45399 1.22775 
48 1 13.9456 8.50879 2.46425 
52 1 15.3022 8.50815 2.46425 
56 1 16.0386 8.50793 1.22775 
19 1 10.013 9.71274 2.46425 
24 1 8.34283 13.6528 2.46425 
27 1 8.79268 12.2437 2.46425 
35 1 9.62422 10.301 1.22775 
43 1 9.02176 11.553 1.22775 
3 1 22.5889 8.50801 2.46424 
7 1 21.7987 8.508 1.22775 
11 1 20.3664 8.508 1.22775 
20 1 23.5298 7.29801 2.46425 
36 1 23.9226 6.71164 1.22775 
44 1 24.5245 5.46102 1.22775 
47 1 19.598 8.508 2.46425 
51 1 18.2463 8.508 2.46425 
55 1 17.5099 8.50797 1.22775 
17 1 23.5298 9.71799 2.46425 
33 1 23.9226 10.3044 1.22775 
41 1 24.5245 11.555 1.22775 
15 1 26.4117 0.826259 2.46425 
23 1 25.1965 3.35974 2.46425 
28 1 24.7507 4.77233 2.46425 
31 1 26.0239 1.41761 1.22775 
39 1 25.4248 2.67004 1.22775 
2 1 27.3552 17.398 2.46424 
6 1 28.1507 17.3986 1.22775 
10 1 29.5748 17.3974 1.22775 
14 1 26.4119 16.1897 2.46425 
22 1 25.1965 13.6563 2.46425 
25 1 24.7507 12.2437 2.46425 
30 1 26.024 15.5985 1.22775 
38 1 25.4248 14.346 1.22775 
46 1 30.3434 17.3896 2.46425 
50 1 31.7181 17.3939 2.46425 
54 1 32.47 17.4305 1.22775 
ITEM: TIMESTEP
60
ITEM: NUMBER OF ATOMS
58
ITEM: BOX BOUNDS pp pp pp
0.0000000000000000e+00 3.2808000000000000e+01
0.0000000000000000e+00 1.7780000000000001e+01
0.0000000000000000e+00 2.4729999999999999e+00
ITEM: ATOMS id type x y z 
13 1 7.03655 0.848564 2.46425 
29 1 7.54609 1.36258 1.22775 
37 1 8.25011 2.62288 1.22776 
57 2 3.91565 1.3964 1.22791 
58 3 3.98097 2.31872 1.22805 
1 1 6.1541 17.3911 2.46426 
5 1 5.33183 17.2916 1.22776 
9 1 3.9608 16.8545 1.22775 
16 1 7.2014 16.2688 2.46425 
32 1 7.64324 15.7182 1.22775 
40 1 8.22499 14.3843 1.22775 
45 1 3.21314 16.9009 2.46425 
49 1 1.86746 17.3864 2.46425 
53 1 1.16077 17.5815 1.22776 
4 1 10.9202 8.50362 2.46425 
8 1 11.7207 8.49979 1.22775 
12 1 13.1386 8.51067 1.22775 
18 1 9.97217 7.30414 2.46425 
21 1 8.43025 3.33309 2.46425 
26 1 8.71693 4.75489 2.46425 
34 1 9.52347 6.761 1.22775 
42 1 8.88774 5.48024 1.22775 
48 1 13.9115 8.51139 2.46425 
52 1 15.2963 8.50875 2.46425 
56 1 16.0266 8.5075 1.22775 
19 1 9.97439 9.70379 2.46425 
24 1 8.3909 13.6688 2.46425 
27 1 8.711 12.2525 2.46425 
35 1 9.52748 10.2485 1.22775 
43 1 8.8926 11.5322 1.22775 
3 1 22.6272 8.50808 2.46425 
7 1 21.8314 8.50804 1.22775 
11 1 20.3949 8.508 1.22775 
20 1 23.5751 7.30774 2.46425 
36 1 24.0286 6.75897 1.22775 
44 1 24.6566 5.49365 1.22775 
47 1 19.6141 8.50804 2.46425 
51 1 18.2369 8.508 2.46425 
55 1 17.4996 8.50775 1.22775 
17 1 23.5751 9.70835 2.46425 
33 1 24.0286 10.2571 1.22775 
41 1 24.6567 11.5226 1.22775 
15 1 26.3934 0.801921 2.46425 
23 1 25.1279 3.33969 2.46425 
28 1 24.8261 4.77961 2.46425 
31 1 25.9308 1.35343 1.22775 
39 1 25.301 2.6276 1.22775 
2 1 27.3885 17.3986 2.46425 
6 1 28.1978 17.4014 1.22775 
10 1 29.6015 17.3876 1.22775 
14 1 26.3952 16.2138 2.46425 
22 1 25.128 13.6765 2.46425 
25 1 24.8262 12.2368 2.46425 
30 1 25.9317 15.663 1.22775 
38 1 25.3011 14.3887 1.22775 
46 1 30.3725 17.3677 2.46425 
50 1 31.769 17.4037 2.46425 
54 1 32.4733 17.4961 1.22775 
ITEM: TIMESTEP
70
ITEM: NUMBER OF ATOMS
58
ITEM: BOX BOUNDS pp pp pp
0.0000000000000000e+00 3.2808000000000000e+01
0.0000000000000000e+00 1.7780000000000001e+01
0.0000000000000000e+00 2.4729999999999999e+00
ITEM: ATOMS id type x y z 
13 1 7.03548 0.834957 2.46425 
29 1 7.53583 1.33853 1.22775 
37 1 8.28919 2.59281 1.22776 
57 2 3.91169 1.41895 1.2279 
58 3 3.9836 2.34202 1.22805 
1 1 6.12663 17.3904 2.46426 
5 1 5.3303 17.2568 1.22776 
9 1 3.98884 16.8126 1.22775 
16 1 7.20481 16.2946 2.46425 
32 1 7.66407 15.753 1.22775 
40 1 8.26232 14.4135 1.22775 
45 1 3.2173 16.8458 2.46425 
49 1 1.88846 17.3769 2.46425 
53 1 1.16254 17.5999 1.22775 
4 1 10.8866 8.5059 2.46425 
8 1 11.7051 8.50005 1.22775 
12 1 13.1053 8.51118 1.22775 
18 1 9.94507 7.30853 2.46425 
21 1 8.46654 3.31007 2.46426 
26 1 8.68039 4.74621 2.46425 
34 1 9.48189 6.77462 1.22775 
42 1 8.82039 5.47041 1.22775 
48 1 13.8798 8.513 2.46425 
52 1 15.3011 8.50917 2.46425 
56 1 16.0411 8.50716 1.22775 
19 1 9.94747 9.70236 2.46425 
24 1 8.41189 13.6955 2.46425 
27 1 8.66833 12.2632 2.46425 
35 1 9.48746 10.2393 1.22775 
43 1 8.82807 11.5466 1.22775 
3 1 22.6503 8.50838 2.46425 
7 1 21.8225 8.50812 1.22775 
11 1 20.429 8.50801 1.22775 
20 1 23.5953 7.31723 2.46425 
36 1 24.0632 6.78687 1.22775 
44 1 24.7258 5.4883 1.22775 
47 1 19.6776 8.50807 2.46425 
51 1 18.2283 8.508 2.46425 
55 1 17.4961 8.50754 1.22775 
17 1 23.5955 9.69916 2.46425 
33 1 24.0633 10.2297 1.22775 
41 1 24.7257 11.5286 1.22775 
15 1 26.3902 0.787103 2.46425 
23 1 25.093 3.33312 2.46425 
28 1 24.869 4.76081 2.46425 
31 1 25.9163 1.31186 1.22775 
39 1 25.2512 2.60726 1.22775 
2 1 27.3768 17.3988 2.46425 
6 1 28.1885 17.4019 1.22775 
10 1 29.5941 17.3786 1.22775 
14 1 26.3926 16.2283 2.46425 
22 1 25.0933 13.6836 2.46425 
25 1 24.8691 12.2558 2.46425 
30 1 25.9183 15.7043 1.22775 
38 1 25.2521 14.4093 1.22775 
46 1 30.3591 17.3542 2.46425 
50 1 31.7886 17.4157 2.46425 
54 1 32.5346 17.5373 1.22775 
ITEM: TIMESTEP
80
ITEM: NUMBER OF ATOMS
58
ITEM: BOX BOUNDS pp pp pp
0.0000000000000000e+00 3.2808000000000000e+01
0.0000000000000000e+00 1.7780000000000001e+01
0.0000000000000000e+00 2.4729999999999999e+00
ITEM: ATOMS id type x y z 
13 1 7.03601 0.835753 2.46425 
29 1 7.52976 1.34506 1.22775 
37 1 8.2888 2.58836 1.22776 
57 2 3.91133 1.41974 1.2279 
58 3 3.98406 2.34174 1.22806 
1 1 6.1312 17.3912 2.46426 
5 1 5.33286 17.2471 1.22776 
9 1 3.98951 16.8173 1.22775 
16 1 7.2066 16.2921 2.46425 
32 1 7.66231 15.7503 1.22775 
40 1 8.26617 14.4186 1.22775 
45 1 3.22078 16.8477 2.46425 
49 1 1.88857 17.3737 2.46425 
53 1 1.16743 17.5906 1.22775 
4 1 10.8782 8.5046 2.46425 
8 1 11.7024 8.5013 1.22775 
12 1 13.0996 8.51079 1.22775 
18 1 9.93183 7.30828 2.46425 
21 1 8.47188 3.30999 2.46426 
26 1 8.67509 4.74187 2.46425 
34 1 9.48123 6.76768 1.22775 
42 1 8.81747 5.47074 1.22775 
48 1 13.8565 8.51329 2.46425 
52 1 15.3001 8.50935 2.46425 
56 1 16.0433 8.50717 1.22775 
19 1 9.93509 9.70332 2.46425 
24 1 8.4165 13.6966 2.46425 
27 1 8.66033 12.2674 2.46425 
35 1 9.48761 10.2466 1.22775 
43 1 8.82459 11.5453 1.22775 
3 1 22.6541 8.50845 2.46425 
7 1 21.8305 8.50821 1.22775 
11 1 20.433 8.50802 1.22775 
20 1 23.6052 7.31548 2.46425 
36 1 24.0666 6.78365 1.22775 
44 1 24.7366 5.48997 1.22775 
47 1 19.676 8.50808 2.46425 
51 1 18.232 8.50796 2.46425 
55 1 17.4901 8.50741 1.22775 
17 1 23.6055 9.70109 2.46425 
33 1 24.0667 10.2331 1.22775 
41 1 24.7363 11.527 1.22775 
15 1 26.3912 0.787932 2.46425 
23 1 25.0861 3.32887 2.46425 
28 1 24.8777 4.76049 2.46425 
31 1 25.9176 1.31159 1.22775 
39 1 25.2405 2.6033 1.22775 
2 1 27.3788 17.3992 2.46425 
6 1 28.1964 17.4008 1.22775 
10 1 29.5969 17.3735 1.22775 
14 1 26.3939 16.2275 2.46425 
22 1 25.0866 13.688 2.46425 
25 1 24.8776 12.2564 2.46425 
30 1 25.9203 15.7045 1.22775 
38 1 25.2418 14.4134 1.22775 
46 1 30.3545 17.3547 2.46425 
50 1 31.7951 17.4273 2.46425 
54 1 32.5324 17.5407 1.22775 
ITEM: TIMESTEP
90
ITEM: NUMBER OF ATOMS
58
ITEM: BOX BOUNDS pp pp pp
0.0000000000000000e+00 3.2808000000000000e+01
0.0000000000000000e+00 1.7780000000000001e+01
0.0000000000000000e+00 2.4729999999999999e+00
ITEM: ATOMS id type x y z 
13 1 7.02744 0.84718 2.46425 
29 1 7.51508 1.35978 1.22775 
37 1 8.304 2.58337 1.22775 
57 2 3.90991 1.42081 1.2279 
58 3 3.98591 2.34245 1.22806 
1 1 6.1406 17.3894 2.46425 
5 1 5.34253 17.2291 1.22775 
9 1 3.99366 16.8183 1.22775 
16 1 7.21329 16.2869 2.46425 
32 1 7.66754 15.7461 1.22775 
40 1 8.29379 14.4251 1.22775 
45 1 3.22591 16.8437 2.46425 
49 1 1.88895 17.3606 2.46425 
53 1 1.16623 17.5718 1.22775 
4 1 10.8747 8.50361 2.46425 
8 1 11.6928 8.50434 1.22775 
12 1 13.0952 8.51019 1.22775 
18 1 9.90875 7.31671 2.46425 
21 1 8.49005 3.3041 2.46425 
26 1 8.66059 4.74161 2.46425 
34 1 9.47901 6.76178 1.22775 
42 1 8.80143 5.47018 1.22775 
48 1 13.8552 8.51309 2.46425 
52 1 15.2961 8.50996 2.46425 
56 1 16.0435 8.50768 1.22775 
19 1 9.91485 9.69636 2.46425 
24 1 8.43274 13.7004 2.46425 
27 1 8.63794 12.2642 2.46425 
35 1 9.48896 10.2534 1.22775 
43 1 8.80589 11.5435 1.22775 
3 1 22.6571 8.50864 2.46425 
7 1 21.8389 8.50848 1.22775 
11 1 20.4357 8.5081 1.22775 
20 1 23.6262 7.32375 2.46425 
36 1 24.066 6.77614 1.22775 
44 1 24.7551 5.49028 1.22775 
47 1 19.6761 8.50809 2.46425 
51 1 18.2358 8.5077 2.46425 
55 1 17.4881 8.50708 1.22775 
17 1 23.6265 9.69324 2.46425 
33 1 24.0662 10.241 1.22775 
41 1 24.7546 11.5272 1.22775 
15 1 26.3907 0.792496 2.46425 
23 1 25.0648 3.32323 2.46425 
28 1 24.9021 4.76312 2.46425 
31 1 25.9228 1.32035 1.22775 
39 1 25.2166 2.59783 1.22775 
2 1 27.3743 17.4005 2.46425 
6 1 28.192 17.3954 1.22775 
10 1 29.5935 17.3589 1.22775 
14 1 26.3937 16.2235 2.46425 
22 1 25.0656 13.6941 2.46425 
25 1 24.9018 12.2543 2.46425 
30 1 25.9273 15.6956 1.22775 
38 1 25.2188 14.4191 1.22775 
46 1 30.3528 17.3565 2.46425 
50 1 31.7895 17.4611 2.46425 
54 1 32.5318 17.5586 1.22775 
ITEM: TIMESTEP
100
ITEM: NUMBER OF ATOMS
58
ITEM: BOX BOUNDS pp pp pp
0.0000000000000000e+00 3.2808000000000000e+01
0.0000000000000000e+00 1.7780000000000001e+01
0.0000000000000000e+00 2.4729999999999999e+00
ITEM: ATOMS id type x y z 
13 1 7.02531 0.850826 2.46425 
29 1 7.49984 1.37327 1.22775 
37 1 8.30456 2.58684 1.22775 
57 2 3.90847 1.42165 1.22789 
58 3 3.98796 2.34315 1.22807 
1 1 6.15068 17.383 2.46425 
5 1 5.35302 17.2179 1.22775 
9 1 3.99868 16.8266 1.22775 
16 1 7.227 16.286 2.46425 
32 1 7.67504 15.7395 1.22775 
40 1 8.31022 14.4227 1.22775 
45 1 3.23123 16.8552 2.46425 
49 1 1.88179 17.3382 2.46425 
53 1 1.15855 17.5465 1.22775 
4 1 10.8769 8.50379 2.46425 
8 1 11.6976 8.50323 1.22775 
12 1 13.0978 8.51073 1.22775 
18 1 9.91253 7.31854 2.46425 
21 1 8.49877 3.30502 2.46425 
26 1 8.65788 4.74467 2.46425 
34 1 9.47487 6.76726 1.22775 
42 1 8.80597 5.47133 1.22775 
48 1 13.8568 8.51166 2.46425 
52 1 15.2987 8.51024 2.46425 
56 1 16.0443 8.50855 1.22775 
19 1 9.92017 9.69599 2.46425 
24 1 8.44665 13.6978 2.46425 
27 1 8.62844 12.2578 2.46425 
35 1 9.48568 10.2489 1.22775 
43 1 8.80309 11.539 1.22775 
3 1 22.6559 8.5085 2.46425 
7 1 21.8362 8.5086 1.22775 
11 1 20.4356 8.50826 1.22775 
20 1 23.6233 7.32387 2.46425 
36 1 24.0662 6.7775 1.22775 
44 1 24.7521 5.49138 1.22775 
47 1 19.677 8.50797 2.46425 
51 1 18.2352 8.50725 2.46425 
55 1 17.4894 8.50712 1.22775 
17 1 23.6234 9.69311 2.46425 
33 1 24.0662 10.2395 1.22775 
41 1 24.7516 11.5259 1.22775 
15 1 26.3887 0.797433 2.46425 
23 1 25.0553 3.325 2.46425 
28 1 24.9085 4.76556 2.46425 
31 1 25.9298 1.33007 1.22775 
39 1 25.2121 2.59902 1.22775 
2 1 27.3675 17.4008 2.46425 
6 1 28.185 17.3876 1.22775 
10 1 29.5866 17.3526 1.22775 
14 1 26.3896 16.2198 2.46425 
22 1 25.0562 13.6921 2.46425 
25 1 24.908 12.2516 2.46425 
30 1 25.9335 15.686 1.22775 
38 1 25.2143 14.4176 1.22775 
46 1 30.3459 17.3647 2.46425 
50 1 31.7807 17.49 2.46425 
54 1 32.5247 17.5754 1.22775 
ITEM: TIMESTEP
110
ITEM: NUMBER OF ATOMS
58
ITEM: BOX BOUNDS pp pp pp
0.0000000000000000e+00 3.2808000000000000e+01
0.0000000000000000e+00 1.7780000000000001e+01
0.0000000000000000e+00 2.4729999999999999e+00
ITEM: ATOMS id type x y z 
13 1 7.01906 0.854249 2.46425 
29 1 7.49207 1.37755 1.22775 
37 1 8.30219 2.58814 1.22775 
57 2 3.90729 1.42249 1.22789 
58 3 3.98982 2.34363 1.22807 
1 1 6.15921 17.3772 2.46425 
5 1 5.3611 17.2105 1.22775 
9 1 4.00223 16.8383 1.22775 
16 1 7.23796 16.2842 2.46425 
32 1 7.68676 15.7389 1.22775 
40 1 8.32352 14.4216 1.22775 
45 1 3.23477 16.8616 2.46425 
49 1 1.87701 17.3187 2.46425 
53 1 1.15405 17.5276 1.22775 
4 1 10.8754 8.50407 2.46425 
8 1 11.6955 8.50311 1.22775 
12 1 13.0968 8.5096 1.22775 
18 1 9.90877 7.31963 2.46425 
21 1 8.50091 3.3044 2.46425 
26 1 8.6623 4.7443 2.46425 
34 1 9.47398 6.76695 1.22775 
42 1 8.8013 5.47227 1.22775 
48 1 13.8561 8.51199 2.46425 
52 1 15.2979 8.51042 2.46425 
56 1 16.0446 8.50887 1.22775 
19 1 9.91805 9.69675 2.46425 
24 1 8.4548 13.697 2.46425 
27 1 8.62666 12.2555 2.46425 
35 1 9.48423 10.2495 1.22775 
43 1 8.79234 11.5345 1.22775 
3 1 22.658 8.50801 2.46425 
7 1 21.839 8.5084 1.22775 
11 1 20.4372 8.50826 1.22775 
20 1 23.6248 7.32256 2.46425 
36 1 24.0674 6.77619 1.22775 
44 1 24.7597 5.49371 1.22775 
47 1 19.677 8.50786 2.46425 
51 1 18.2367 8.50712 2.46425 
55 1 17.4891 8.50718 1.22775 
17 1 23.6246 9.69378 2.46425 
33 1 24.0671 10.2401 1.22775 
41 1 24.7595 11.5226 1.22775 
15 1 26.3914 0.801799 2.46425 
23 1 25.0508 3.32425 2.46425 
28 1 24.9078 4.76592 2.46425 
31 1 25.931 1.33246 1.22775 
39 1 25.2059 2.5987 1.22775 
2 1 27.3631 17.3997 2.46425 
6 1 28.1814 17.3838 1.22775 
10 1 29.5832 17.3524 1.22775 
14 1 26.3884 16.2164 2.46425 
22 1 25.0513 13.692 2.46425 
25 1 24.9076 12.2503 2.46425 
30 1 25.9312 15.684 1.22775 
38 1 25.2066 14.4173 1.22775 
46 1 30.3426 17.373 2.46425 
50 1 31.7762 17.5108 2.46425 
54 1 32.5212 17.5878 1.22775 
ITEM: TIMESTEP
120
ITEM: NUMBER OF ATOMS
58
ITEM: BOX BOUNDS pp pp pp
0.0000000000000000e+00 3.2808000000000000e+01
0.0000000000000000e+00 1.7780000000000001e+01
0.0000000000000000e+00 2.4729999999999999e+00
ITEM: ATOMS id type x y z 
13 1 7.01711 0.855653 2.46425 
29 1 7.48095 1.38419 1.22775 
37 1 8.2952 2.59068 1.22775 
57 2 3.90567 1.42375 1.22788 
58 3 3.99249 2.34437 1.22808 
1 1 6.16897 17.3677 2.46425 
5 1 5.37069 17.1997 1.22775 
9 1 4.00554 16.8552 1.22775 
16 1 7.25634 16.2832 2.46425 
32 1 7.70391 15.7371 1.22775 
40 1 8.33787 14.4216 1.22775 
45 1 3.2403 16.8713 2.46425 
49 1 1.86867 17.2934 2.46425 
53 1 1.14654 17.5016 1.22775 
4 1 10.8768 8.5046 2.46425 
8 1 11.6955 8.50245 1.22775 
12 1 13.0983 8.50913 1.22775 
18 1 9.90822 7.32122 2.46425 
21 1 8.50253 3.30619 2.46425 
26 1 8.66452 4.74427 2.46425 
34 1 9.47241 6.77008 1.22775 
42 1 8.80553 5.47343 1.22775 
48 1 13.8571 8.51124 2.46425 
52 1 15.2981 8.51089 2.46425 
56 1 16.0447 8.50927 1.22775 
19 1 9.91792 9.69803 2.46425 
24 1 8.46742 13.6935 2.46425 
27 1 8.62086 12.2519 2.46425 
35 1 9.48117 10.2466 1.22775 
43 1 8.78671 11.5291 1.22775 
3 1 22.6568 8.50731 2.46425 
7 1 21.8387 8.50781 1.22775 
11 1 20.4366 8.50812 1.22775 
20 1 23.6254 7.32198 2.46425 
36 1 24.0683 6.77713 1.22775 
44 1 24.7607 5.49386 1.22775 
47 1 19.6777 8.50777 2.46425 
51 1 18.2365 8.50707 2.46425 
55 1 17.4895 8.50727 1.22775 
17 1 23.625 9.69331 2.46425 
33 1 24.0679 10.238 1.22775 
41 1 24.7611 11.5207 1.22775 
15 1 26.391 0.802783 2.46425 
23 1 25.0449 3.32442 2.46425 
28 1 24.9092 4.76633 2.46425 
31 1 25.9349 1.3371 1.22775 
39 1 25.2043 2.59853 1.22775 
2 1 27.3586 17.3975 2.46425 
6 1 28.1757 17.3784 1.22775 
10 1 29.5776 17.3562 1.22775 
14 1 26.3821 16.2162 2.46425 
22 1 25.0445 13.6902 2.46425 
25 1 24.9096 12.2483 2.46425 
30 1 25.9286 15.6802 1.22775 
38 1 25.2021 14.4163 1.22775 
46 1 30.3368 17.388 2.46425 
50 1 31.7692 17.5367 2.46425 
54 1 32.5153 17.601 1.22775 
ITEM: TIMESTEP
130
ITEM: NUMBER OF ATOMS
58
ITEM: BOX BOUNDS pp pp pp
0.0000000000000000e+00 3.2808000000000000e+01
0.0000000000000000e+00 1.7780000000000001e+01
0.0000000000000000e+00 2.4729999999999999e+00
ITEM: ATOMS id type x y z 
13 1 7.00893 0.855595 2.46425 
29 1 7.47404 1.38521 1.22775 
37 1 8.29045 2.59222 1.22775 
57 2 3.90404 1.42505 1.22787 
58 3 3.99538 2.34541 1.22809 
1 1 6.17875 17.3576 2.46425 
5 1 5.37742 17.1903 1.22775 
9 1 4.00883 16.8696 1.22775 
16 1 7.27213 16.2842 2.46425 
32 1 7.72479 15.7396 1.22775 
40 1 8.35777 14.4219 1.22775 
45 1 3.24431 16.8788 2.46425 
49 1 1.86171 17.2705 2.46425 
53 1 1.13926 17.4786 1.22775 
4 1 10.8757 8.50613 2.46425 
8 1 11.6965 8.50319 1.22775 
12 1 13.0975 8.50802 1.22775 
18 1 9.90681 7.32366 2.46425 
21 1 8.50035 3.30567 2.46425 
26 1 8.66931 4.74455 2.46425 
34 1 9.4708 6.77097 1.22775 
42 1 8.80323 5.4743 1.22775 
48 1 13.8574 8.51118 2.46425 
52 1 15.2983 8.51091 2.46425 
56 1 16.0458 8.50982 1.22775 
19 1 9.91764 9.69746 2.46425 
24 1 8.47636 13.6931 2.46425 
27 1 8.61766 12.2482 2.46425 
35 1 9.47702 10.2456 1.22775 
43 1 8.77354 11.5243 1.22775 
3 1 22.6584 8.50649 2.46425 
7 1 21.8397 8.50704 1.22775 
11 1 20.4379 8.50784 1.22775 
20 1 23.626 7.32123 2.46425 
36 1 24.0707 6.77711 1.22775 
44 1 24.766 5.49559 1.22775 
47 1 19.6784 8.50769 2.46425 
51 1 18.2375 8.5071 2.46425 
55 1 17.4904 8.50743 1.22775 
17 1 23.6253 9.69259 2.46425 
33 1 24.0703 10.2363 1.22775 
41 1 24.7676 11.5168 1.22775 
15 1 26.3932 0.805874 2.46425 
23 1 25.0422 3.32276 2.46425 
28 1 24.9081 4.76666 2.46425 
31 1 25.9352 1.3372 1.22775 
39 1 25.2001 2.59732 1.22775 
2 1 27.3536 17.3944 2.46425 
6 1 28.1709 17.3738 1.22775 
10 1 29.5744 17.3645 1.22775 
14 1 26.3774 16.2139 2.46425 
22 1 25.0401 13.6899 2.46425 
25 1 24.9095 12.2457 2.46425 
30 1 25.921 15.6806 1.22775 
38 1 25.1932 14.4162 1.22775 
46 1 30.3323 17.4058 2.46425 
50 1 31.764 17.5593 2.46425 
54 1 32.512 17.611 1.22775 
ITEM: TIMESTEP
140
ITEM: NUMBER OF ATOMS
58
ITEM: BOX BOUNDS pp pp pp
0.0000000000000000e+00 3.2808000000000000e+01
0.0000000000000000e+00 1.7780000000000001e+01
0.0000000000000000e+00 2.4729999999999999e+00
ITEM: ATOMS id type x y z 
13 1 7.01273 0.852635 2.46425 
29 1 7.46686 1.38761 1.22775 
37 1 8.28008 2.59423 1.22775 
57 2 3.90307 1.42619 1.22786 
58 3 3.99722 2.34591 1.2281 
1 1 6.18247 17.351 2.46425 
5 1 5.38397 17.1823 1.22775 
9 1 4.0105 16.8802 1.22775 
16 1 7.28337 16.2833 2.46425 
32 1 7.73445 15.7394 1.22775 
40 1 8.36174 14.4216 1.22775 
45 1 3.24625 16.8877 2.46425 
49 1 1.8586 17.2585 2.46425 
53 1 1.13696 17.4622 1.22775 
4 1 10.8777 8.50713 2.46425 
8 1 11.6944 8.50364 1.22775 
12 1 13.0984 8.50826 1.22775 
18 1 9.90638 7.32459 2.46425 
21 1 8.49655 3.30738 2.46425 
26 1 8.66979 4.74403 2.46425 
34 1 9.47245 6.77211 1.22775 
42 1 8.81164 5.47272 1.22775 
48 1 13.8572 8.51024 2.46425 
52 1 15.298 8.51119 2.46425 
56 1 16.0452 8.50986 1.22775 
19 1 9.91482 9.69954 2.46425 
24 1 8.4834 13.691 2.46425 
27 1 8.61399 12.2479 2.46425 
35 1 9.47593 10.2448 1.22775 
43 1 8.77575 11.5232 1.22775 
3 1 22.6574 8.50598 2.46425 
7 1 21.84 8.50651 1.22775 
11 1 20.4368 8.50762 1.22775 
20 1 23.6276 7.32159 2.46425 
36 1 24.0705 6.77686 1.22775 
44 1 24.7627 5.49336 1.22775 
47 1 19.6773 8.5076 2.46425 
51 1 18.2365 8.5072 2.46425 
55 1 17.4894 8.50768 1.22775 
17 1 23.6269 9.69141 2.46425 
33 1 24.0701 10.2355 1.22775 
41 1 24.765 11.5174 1.22775 
15 1 26.3908 0.80368 2.46425 
23 1 25.0409 3.32337 2.46425 
28 1 24.9088 4.76527 2.46425 
31 1 25.9379 1.33969 1.22775 
39 1 25.2031 2.59811 1.22775 
2 1 27.3518 17.3922 2.46425 
6 1 28.1699 17.3715 1.22775 
10 1 29.5717 17.3724 1.22775 
14 1 26.3706 16.2153 2.46425 
22 1 25.0372 13.688 2.46425 
25 1 24.9109 12.2457 2.46425 
30 1 25.9182 15.6786 1.22775 
38 1 25.193 14.4146 1.22775 
46 1 30.3303 17.4193 2.46425 
50 1 31.7621 17.5706 2.46425 
54 1 32.5095 17.6125 1.22775 
ITEM: TIMESTEP
150
ITEM: NUMBER OF ATOMS
58
ITEM: BOX BOUNDS pp pp pp
0.0000000000000000e+00 3.2808000000000000e+01
0.0000000000000000e+00 1.7780000000000001e+01
0.0000000000000000e+00 2.4729999999999999e+00
ITEM: ATOMS id type x y z 
13 1 7.00906 0.852323 2.46425 
29 1 7.46546 1.38685 1.22775 
37 1 8.27924 2.59497 1.22775 
57 2 3.90259 1.42661 1.22786 
58 3 3.99818 2.34638 1.2281 
1 1 6.18503 17.3477 2.46425 
5 1 5.3853 17.1797 1.22775 
9 1 4.01105 16.8828 1.22775 
16 1 7.28764 16.2843 2.46425 
32 1 7.7415 15.7406 1.22775 
40 1 8.36924 14.4216 1.22775 
45 1 3.24714 16.8889 2.46425 
49 1 1.85744 17.2529 2.46425 
53 1 1.13469 17.4569 1.22775 
4 1 10.8775 8.50782 2.46425 
8 1 11.6958 8.50426 1.22775 
12 1 13.0984 8.50802 1.22775 
18 1 9.90724 7.32548 2.46425 
21 1 8.49505 3.30662 2.46425 
26 1 8.67112 4.74464 2.46425 
34 1 9.47222 6.77309 1.22775 
42 1 8.81004 5.47225 1.22775 
48 1 13.8575 8.51023 2.46425 
52 1 15.2986 8.51107 2.46425 
56 1 16.0455 8.51002 1.22775 
19 1 9.91589 9.69876 2.46425 
24 1 8.48574 13.6917 2.46425 