ITEM: TIMESTEP
0
ITEM: NUMBER OF ATOMS
147
ITEM: BOX BOUNDS pp pp pp
0.0000000000000000e+00 2.1884000000000000e+01
0.0000000000000000e+00 2.1885999999999999e+01
0.0000000000000000e+00 2.1885000000000002e+01
ITEM: ATOMS id type x y z 
145 2 10.603 9.33 8.575 
146 2 9.341 10.137 8.676 
147 3 8.898 10.03 7.799 
16 1 1.605 12.547 12.547 
32 1 0.024 10.965 10.965 
64 1 4.318 12.218 12.218 
68 1 1.276 15.26 12.218 
78 1 1.276 12.218 15.26 
112 1 3.118 12.317 12.317 
116 1 1.375 14.061 12.317 
126 1 1.375 12.317 14.061 
144 1 0.722 11.664 11.663 
9 1 8.524 12.547 12.547 
25 1 10.105 10.965 10.965 
57 1 5.811 12.218 12.218 
65 1 8.853 15.26 12.218 
73 1 8.853 12.219 15.26 
105 1 7.01 12.317 12.317 
113 1 8.754 14.061 12.317 
121 1 8.754 12.317 14.061 
137 1 9.407 11.664 11.664 
11 1 1.605 19.466 12.547 
27 1 0.023 21.047 10.964 
59 1 4.318 19.795 12.218 
69 1 1.276 16.754 12.218 
79 1 1.276 19.795 15.26 
107 1 3.119 19.696 12.317 
117 1 1.375 17.953 12.317 
127 1 1.375 19.696 14.061 
139 1 0.721 20.349 11.663 
14 1 8.524 19.467 12.547 
30 1 10.106 21.049 10.966 
62 1 5.811 19.795 12.218 
72 1 8.853 16.753 12.218 
76 1 8.853 19.796 15.26 
110 1 7.01 19.696 12.317 
120 1 8.754 17.953 12.317 
124 1 8.754 19.697 14.061 
142 1 9.407 20.35 11.664 
13 1 1.605 12.547 19.466 
29 1 0.023 10.966 21.048 
61 1 4.318 12.218 19.795 
71 1 1.276 15.26 19.795 
75 1 1.276 12.218 16.754 
109 1 3.119 12.317 19.696 
119 1 1.375 14.061 19.696 
123 1 1.375 12.317 17.953 
141 1 0.721 11.664 20.35 
12 1 8.524 12.547 19.466 
28 1 10.106 10.965 21.047 
60 1 5.811 12.219 19.795 
70 1 8.853 15.26 19.796 
80 1 8.853 12.219 16.754 
108 1 7.011 12.317 19.696 
118 1 8.754 14.061 19.696 
128 1 8.754 12.318 17.953 
140 1 9.408 11.664 20.349 
10 1 1.604 19.466 19.466 
26 1 0.023 21.047 21.049 
58 1 4.317 19.796 19.795 
66 1 1.276 16.754 19.795 
74 1 1.276 19.795 16.753 
106 1 3.118 19.696 19.696 
114 1 1.375 17.953 19.696 
122 1 1.375 19.696 17.952 
138 1 0.721 20.349 20.35 
15 1 8.524 19.467 19.466 
31 1 10.106 21.048 21.049 
63 1 5.811 19.796 19.795 
67 1 8.853 16.754 19.795 
77 1 8.853 19.796 16.753 
111 1 7.01 19.697 19.696 
115 1 8.754 17.953 19.696 
125 1 8.754 19.697 17.952 
143 1 9.407 20.35 20.35 
8 1 12.547 1.604 1.605 
24 1 10.965 0.023 0.022 
40 1 15.26 1.275 1.276 
44 1 12.218 4.317 1.276 
54 1 12.218 1.275 4.318 
88 1 14.061 1.374 1.375 
92 1 12.317 3.118 1.375 
102 1 12.317 1.374 3.119 
136 1 11.664 0.721 0.721 
1 1 19.466 1.604 1.604 
17 1 21.048 0.023 0.022 
33 1 16.753 1.275 1.276 
41 1 19.795 4.317 1.276 
49 1 19.795 1.275 4.317 
81 1 17.952 1.374 1.375 
89 1 19.696 3.118 1.375 
97 1 19.696 1.374 3.118 
129 1 20.35 0.722 0.721 
3 1 12.546 8.524 1.604 
19 1 10.965 10.106 0.024 
35 1 15.26 8.852 1.276 
45 1 12.218 5.811 1.275 
55 1 12.218 8.852 4.317 
83 1 14.06 8.753 1.375 
93 1 12.317 7.01 1.374 
103 1 12.317 8.753 3.118 
131 1 11.663 9.407 0.722 
6 1 19.466 8.524 1.605 
22 1 21.048 10.105 0.023 
38 1 16.753 8.852 1.276 
48 1 19.795 5.811 1.276 
52 1 19.795 8.853 4.318 
86 1 17.952 8.754 1.375 
96 1 19.696 7.01 1.375 
100 1 19.696 8.754 3.118 
134 1 20.35 9.407 0.721 
5 1 12.547 1.604 8.524 
21 1 10.965 0.022 10.105 
37 1 15.26 1.275 8.853 
47 1 12.218 4.317 8.853 
51 1 12.218 1.276 5.811 
85 1 14.06 1.374 8.754 
95 1 12.317 3.118 8.754 
99 1 12.317 1.375 7.01 
133 1 11.663 0.72 9.407 
4 1 19.466 1.605 8.524 
20 1 21.048 0.024 10.107 
36 1 16.753 1.275 8.853 
46 1 19.795 4.317 8.853 
56 1 19.795 1.275 5.811 
84 1 17.952 1.374 8.754 
94 1 19.695 3.118 8.754 
104 1 19.696 1.374 7.01 
132 1 20.35 0.722 9.408 
2 1 12.547 8.524 8.524 
18 1 10.965 10.106 10.106 
34 1 15.26 8.853 8.853 
42 1 12.218 5.811 8.853 
50 1 12.218 8.852 5.811 
82 1 14.061 8.754 8.754 
90 1 12.317 7.01 8.754 
98 1 12.317 8.754 7.01 
130 1 11.664 9.407 9.407 
7 1 19.466 8.524 8.524 
23 1 21.047 10.106 10.106 
39 1 16.753 8.853 8.853 
43 1 19.795 5.811 8.853 
53 1 19.795 8.853 5.811 
87 1 17.952 8.754 8.754 
91 1 19.696 7.01 8.754 
101 1 19.696 8.754 7.01 
135 1 20.349 9.407 9.407 
ITEM: TIMESTEP
10
ITEM: NUMBER OF ATOMS
147
ITEM: BOX BOUNDS pp pp pp
0.0000000000000000e+00 2.1884000000000000e+01
0.0000000000000000e+00 2.1885999999999999e+01
0.0000000000000000e+00 2.1885000000000002e+01
ITEM: ATOMS id type x y z 
145 2 10.6691 9.33476 8.63388 
146 2 9.31638 10.1409 8.65708 
147 3 8.90474 10.0296 7.80713 
16 1 1.605 12.547 12.5469 
32 1 0.0240612 10.9655 10.9647 
64 1 4.31748 12.2185 12.2185 
68 1 1.27638 15.2602 12.2184 
78 1 1.27642 12.2184 15.2601 
112 1 3.11959 12.3172 12.3171 
116 1 1.37533 14.0608 12.3173 
126 1 1.37535 12.3174 14.0607 
144 1 0.72126 11.6631 11.6637 
9 1 8.53342 12.5376 12.5372 
25 1 10.1217 10.9554 10.9593 
57 1 5.81162 12.2188 12.2188 
65 1 8.85224 15.2595 12.2187 
73 1 8.85228 12.2194 15.2601 
105 1 7.00991 12.3165 12.3165 
113 1 8.75457 14.0611 12.3165 
121 1 8.75457 12.3168 14.0605 
137 1 9.40253 11.6678 11.6674 
11 1 1.60478 19.4663 12.5468 
27 1 0.0228788 21.0475 10.9646 
59 1 4.3179 19.7947 12.2183 
69 1 1.27637 16.7534 12.2183 
79 1 1.27636 19.7947 15.2599 
107 1 3.11787 19.6957 12.3174 
117 1 1.37518 17.9528 12.3173 
127 1 1.37525 19.6957 14.0601 
139 1 0.721762 20.3497 11.6627 
14 1 8.52409 19.4663 12.5469 
30 1 10.1055 21.0486 10.9655 
62 1 5.81088 19.7947 12.2183 
72 1 8.85248 16.7537 12.2186 
76 1 8.85265 19.7957 15.2601 
110 1 7.01098 19.6958 12.3173 
120 1 8.75379 17.9517 12.3172 
124 1 8.75361 19.6965 14.0599 
142 1 9.40781 20.3506 11.6646 
13 1 1.60482 12.5471 19.4664 
29 1 0.0226323 10.9654 21.0484 
61 1 4.31758 12.2186 19.7946 
71 1 1.27641 15.26 19.7946 
75 1 1.27638 12.2184 16.7535 
109 1 3.1191 12.3173 19.6958 
119 1 1.37532 14.0608 19.6958 
123 1 1.37524 12.3173 17.9528 
141 1 0.721867 11.6645 20.3494 
12 1 8.52433 12.5472 19.4662 
28 1 10.1062 10.9653 21.0474 
60 1 5.81187 12.219 19.7945 
70 1 8.85261 15.2605 19.7952 
80 1 8.8526 12.2195 16.753 
108 1 7.01021 12.3176 19.6958 
118 1 8.75378 14.0613 19.6961 
128 1 8.75388 12.318 17.9521 
140 1 9.40732 11.6633 20.3497 
10 1 1.60426 19.4664 19.4661 
26 1 0.0232119 21.0474 21.0485 
58 1 4.31743 19.7953 19.7946 
66 1 1.2764 16.7534 19.7947 
74 1 1.27636 19.7947 16.753 
106 1 3.11821 19.6961 19.6957 
114 1 1.37506 17.9528 19.6957 
122 1 1.37512 19.6958 17.9528 
138 1 0.720739 20.3493 20.3507 
15 1 8.52397 19.467 19.4662 
31 1 10.1052 21.0479 21.0482 
63 1 5.81087 19.7956 19.7946 
67 1 8.85255 16.7539 19.7947 
77 1 8.85266 19.7956 16.753 
111 1 7.01019 19.6967 19.6957 
115 1 8.75361 17.9533 19.6956 
125 1 8.75361 19.6967 17.9533 
143 1 9.40794 20.3501 20.3506 
8 1 12.5469 1.60406 1.60479 
24 1 10.9657 0.0230545 0.0227547 
40 1 15.26 1.27535 1.27635 
44 1 12.2184 4.31719 1.27626 
54 1 12.2183 1.27553 4.31808 
88 1 14.0599 1.37433 1.37536 
92 1 12.3174 3.11773 1.37539 
102 1 12.3174 1.37426 3.11795 
136 1 11.663 0.720847 0.720358 
1 1 19.4663 1.60432 1.60426 
17 1 21.0481 0.0234269 0.0227892 
33 1 16.753 1.27532 1.27639 
41 1 19.7946 4.31746 1.27643 
49 1 19.7946 1.27536 4.31747 
81 1 17.9531 1.37443 1.3752 
89 1 19.6958 3.1179 1.37516 
97 1 19.6958 1.3743 3.11798 
129 1 20.3493 0.720631 0.720153 
3 1 12.5463 8.52387 1.60513 
19 1 10.9649 10.1057 0.023598 
35 1 15.259 8.85144 1.27651 
45 1 12.2185 5.81051 1.27551 
55 1 12.2182 8.85166 4.32081 
83 1 14.0605 8.75288 1.37517 
93 1 12.317 7.01 1.37431 
103 1 12.3171 8.75278 3.11892 
131 1 11.6636 9.40767 0.721341 
6 1 19.4662 8.52397 1.60488 
22 1 21.0483 10.1056 0.0225887 
38 1 16.7533 8.8518 1.27649 
48 1 19.7946 5.81074 1.27643 
52 1 19.7945 8.85255 4.31717 
86 1 17.9518 8.75348 1.37517 
96 1 19.6957 7.01014 1.37529 
100 1 19.6958 8.75376 3.11884 
134 1 20.3492 9.4064 0.721738 
5 1 12.5467 1.60496 8.52436 
21 1 10.9652 0.0219693 10.1051 
37 1 15.2591 1.27546 8.8525 
47 1 12.2184 4.32087 8.85262 
51 1 12.2184 1.27625 5.811 
85 1 14.0608 1.37431 8.75378 
95 1 12.3174 3.11897 8.75368 
99 1 12.3174 1.37527 7.011 
133 1 11.6631 0.720639 9.40668 
4 1 19.466 1.60451 8.52406 
20 1 21.048 0.0237034 10.1064 
36 1 16.7534 1.27542 8.85251 
46 1 19.7943 4.31755 8.85267 
56 1 19.7945 1.27537 5.81081 
84 1 17.9519 1.37445 8.75369 
94 1 19.6952 3.11817 8.7536 
104 1 19.6958 1.37449 7.01026 
132 1 20.3491 0.721386 9.40803 
2 1 12.6145 8.46533 8.47167 
18 1 10.944 10.1457 10.169 
34 1 15.2637 8.85447 8.85443 
42 1 12.2164 5.80877 8.85403 
50 1 12.217 8.85339 5.80942 
82 1 14.062 8.74831 8.74962 
90 1 12.3248 7.00884 8.74796 
98 1 12.3288 8.74531 7.00862 
130 1 11.531 9.44175 9.36621 
7 1 19.465 8.52413 8.52428 
23 1 21.0474 10.1054 10.1052 
39 1 16.7491 8.8527 8.85268 
43 1 19.7946 5.81069 8.85259 
53 1 19.7945 8.85256 5.81125 
87 1 17.9519 8.75347 8.75348 
91 1 19.6957 7.01022 8.75367 
101 1 19.6957 8.75371 7.00999 
135 1 20.3485 9.40792 9.40791 
ITEM: TIMESTEP
20
ITEM: NUMBER OF ATOMS
147
ITEM: BOX BOUNDS pp pp pp
0.0000000000000000e+00 2.1884000000000000e+01
0.0000000000000000e+00 2.1885999999999999e+01
0.0000000000000000e+00 2.1885000000000002e+01
ITEM: ATOMS id type x y z 
145 2 10.6708 9.3312 8.63261 
146 2 9.30898 10.1436 8.65629 
147 3 8.90329 10.0286 7.80236 
16 1 1.60492 12.5468 12.5471 
32 1 0.0236405 10.9649 10.9649 
64 1 4.31711 12.2186 12.2186 
68 1 1.2766 15.26 12.2186 
78 1 1.27663 12.2186 15.26 
112 1 3.11724 12.3175 12.3175 
116 1 1.37541 14.0609 12.3174 
126 1 1.37542 12.3174 14.061 
144 1 0.721726 11.6639 11.6632 
9 1 8.53371 12.5371 12.5358 
25 1 10.1248 10.9584 10.9694 
57 1 5.80862 12.2187 12.2187 
65 1 8.85234 15.2625 12.2187 
73 1 8.85229 12.2194 15.2621 
105 1 7.00938 12.315 12.3149 
113 1 8.75599 14.0617 12.3149 
121 1 8.75601 12.3154 14.0617 
137 1 9.40183 11.6693 11.6716 
11 1 1.60479 19.4664 12.5465 
27 1 0.0230916 21.0478 10.9644 
59 1 4.31756 19.7944 12.2186 
69 1 1.27654 16.7535 12.2186 
79 1 1.27658 19.7944 15.2596 
107 1 3.11875 19.6957 12.3174 
117 1 1.37527 17.9526 12.3173 
127 1 1.3753 19.6957 14.0607 
139 1 0.721348 20.3497 11.6631 
14 1 8.52427 19.4665 12.5471 
30 1 10.1058 21.0488 10.9656 
62 1 5.81128 19.7944 12.2186 
72 1 8.85241 16.7541 12.2186 
76 1 8.85238 19.7954 15.2597 
110 1 7.01009 19.6958 12.3173 
120 1 8.75354 17.9539 12.3175 
124 1 8.75362 19.6965 14.061 
142 1 9.40756 20.3504 11.6639 
13 1 1.6049 12.547 19.4664 
29 1 0.0231763 10.9657 21.048 
61 1 4.31802 12.2188 19.7944 
71 1 1.27661 15.2601 19.7944 
75 1 1.27658 12.2186 16.7535 
109 1 3.1185 12.3175 19.6957 
119 1 1.37541 14.0609 19.6957 
123 1 1.37532 12.3174 17.9526 
141 1 0.721026 11.6638 20.3501 
12 1 8.52436 12.5472 19.4663 
28 1 10.1061 10.9651 21.0477 
60 1 5.81129 12.2191 19.7944 
70 1 8.85241 15.2604 19.7949 
80 1 8.85248 12.2196 16.754 
108 1 7.01074 12.3178 19.6957 
118 1 8.75369 14.0613 19.6961 
128 1 8.75365 12.3183 17.9535 
140 1 9.4076 11.6635 20.3495 
10 1 1.60433 19.4662 19.4664 
26 1 0.022921 21.0476 21.0489 
58 1 4.31738 19.7951 19.7944 
66 1 1.27657 16.7535 19.7945 
74 1 1.27659 19.7944 16.7533 
106 1 3.11827 19.696 19.6956 
114 1 1.37515 17.9526 19.6957 
122 1 1.37514 19.6957 17.9522 
138 1 0.721238 20.3494 20.3498 
15 1 8.5242 19.4668 19.4662 
31 1 10.106 21.0481 21.0485 
63 1 5.81096 19.7954 19.7944 
67 1 8.85235 16.754 19.7945 
77 1 8.85237 19.7954 16.7535 
111 1 7.0101 19.6966 19.6956 
115 1 8.75351 17.9531 19.6956 
125 1 8.7536 19.6966 17.9523 
143 1 9.40684 20.3501 20.35 
8 1 12.5469 1.6039 1.60484 
24 1 10.9653 0.0224273 0.0224617 
40 1 15.2596 1.27559 1.27664 
44 1 12.2187 4.31716 1.27644 
54 1 12.2186 1.2758 4.3177 
88 1 14.0608 1.37439 1.37536 
92 1 12.3174 3.11801 1.37545 
102 1 12.3174 1.37435 3.11876 
136 1 11.6635 0.721579 0.72085 
1 1 19.466 1.60403 1.60429 
17 1 21.0479 0.0225705 0.0224417 
33 1 16.7534 1.27558 1.27665 
41 1 19.7944 4.31729 1.27665 
49 1 19.7944 1.27557 4.31734 
81 1 17.9522 1.37447 1.37519 
89 1 19.6956 3.11821 1.37521 
97 1 19.6957 1.3744 3.11828 
129 1 20.3497 0.721662 0.720761 
3 1 12.546 8.52389 1.60562 
19 1 10.9649 10.1057 0.0232969 
35 1 15.2596 8.8513 1.27662 
45 1 12.2187 5.81058 1.27572 
55 1 12.2177 8.85202 4.31955 
83 1 14.06 8.7528 1.37542 
93 1 12.3171 7.00983 1.37456 
103 1 12.3173 8.75259 3.11967 
131 1 11.6637 9.40763 0.72173 
6 1 19.4662 8.5239 1.60472 
22 1 21.0479 10.1051 0.0230228 
38 1 16.7528 8.85167 1.27664 
48 1 19.7944 5.81087 1.27665 
52 1 19.7944 8.85243 4.31775 
86 1 17.9524 8.75327 1.37533 
96 1 19.6956 7.00999 1.37539 
100 1 19.6956 8.75358 3.11818 
134 1 20.3497 9.40739 0.721086 
5 1 12.5462 1.60554 8.52435 
21 1 10.9649 0.0219696 10.1048 
37 1 15.2598 1.27554 8.85235 
47 1 12.2179 4.3197 8.85292 
51 1 12.2186 1.27643 5.81121 
85 1 14.0602 1.37461 8.7537 
95 1 12.3176 3.11935 8.75343 
99 1 12.3173 1.3754 7.0102 
133 1 11.6637 0.720812 9.40739 
4 1 19.466 1.60447 8.52411 
20 1 21.0478 0.0234892 10.1063 
36 1 16.7529 1.27558 8.85235 
46 1 19.7941 4.31744 8.85243 
56 1 19.7943 1.27562 5.81101 
84 1 17.9525 1.37461 8.75354 
94 1 19.6952 3.11824 8.75351 
104 1 19.6956 1.37459 7.01007 
132 1 20.3492 0.721387 9.40779 
2 1 12.6171 8.46464 8.47316 
18 1 10.9526 10.1474 10.174 
34 1 15.2657 8.85566 8.85565 
42 1 12.2155 5.80733 8.85472 
50 1 12.217 8.85383 5.80868 
82 1 14.0658 8.74484 8.74713 
90 1 12.3306 7.00589 8.74405 
98 1 12.3365 8.73929 7.00575 
130 1 11.5099 9.44636 9.35774 
7 1 19.4647 8.52431 8.52443 
23 1 21.0478 10.1057 10.1055 
39 1 16.7508 8.85309 8.85299 
43 1 19.7944 5.81071 8.85237 
53 1 19.7945 8.85238 5.81078 
87 1 17.9516 8.75319 8.75321 
91 1 19.6955 7.00995 8.7537 
101 1 19.6954 8.75367 7.01033 
135 1 20.3481 9.40762 9.40768 
ITEM: TIMESTEP
30
ITEM: NUMBER OF ATOMS
147
ITEM: BOX BOUNDS pp pp pp
0.0000000000000000e+00 2.1884000000000000e+01
0.0000000000000000e+00 2.1885999999999999e+01
0.0000000000000000e+00 2.1885000000000002e+01
ITEM: ATOMS id type x y z 
145 2 10.6238 9.28379 8.56158 
146 2 9.22883 10.171 8.64318 
147 3 8.89249 10.0182 7.7592 
16 1 1.60071 12.5475 12.5472 
32 1 0.0227041 10.9654 10.9634 
64 1 4.30764 12.2194 12.2198 
68 1 1.27799 15.2623 12.2199 
78 1 1.27816 12.2198 15.2613 
112 1 3.10916 12.3187 12.3183 
116 1 1.37508 14.0628 12.3177 
126 1 1.37524 12.3183 14.0621 
144 1 0.719168 11.6606 11.6657 
9 1 8.52481 12.5429 12.5384 
25 1 10.1825 10.9706 11.0467 
57 1 5.79922 12.216 12.2163 
65 1 8.85477 15.2713 12.2168 
73 1 8.85412 12.2178 15.2694 
105 1 7.00082 12.3061 12.3044 
113 1 8.76373 14.0697 12.3051 
121 1 8.76247 12.3085 14.0671 
137 1 9.41797 11.6731 11.7088 
11 1 1.60384 19.4666 12.5464 
27 1 0.0221526 21.0491 10.966 
59 1 4.31631 19.7926 12.2203 
69 1 1.27826 16.7544 12.2201 
79 1 1.27854 19.7926 15.2603 
107 1 3.11671 19.6947 12.3183 
117 1 1.37593 17.9539 12.3182 
127 1 1.37593 19.6949 14.0605 
139 1 0.723389 20.3521 11.6625 
14 1 8.52407 19.4707 12.5468 
30 1 10.108 21.0485 10.9634 
62 1 5.80962 19.7929 12.2199 
72 1 8.85134 16.7634 12.2199 
76 1 8.85102 19.7939 15.2619 
110 1 7.00926 19.6959 12.3182 
120 1 8.75277 17.9619 12.3187 
124 1 8.75321 19.6964 14.0621 
142 1 9.4073 20.353 11.6618 
13 1 1.60442 12.5466 19.467 
29 1 0.0225937 10.9646 21.0481 
61 1 4.31621 12.2206 19.7927 
71 1 1.27846 15.2603 19.7927 
75 1 1.27822 12.2202 16.7547 
109 1 3.1177 12.3187 19.6948 
119 1 1.37617 14.0611 19.695 
123 1 1.37617 12.3184 17.9539 
141 1 0.722685 11.6631 20.3507 
12 1 8.52416 12.5479 19.4709 
28 1 10.1072 10.9647 21.0504 
60 1 5.81005 12.2201 19.7928 
70 1 8.85099 15.2621 19.793 
80 1 8.8512 12.2206 16.7612 
108 1 7.00864 12.3186 19.696 
118 1 8.75316 14.0627 19.6964 
128 1 8.75264 12.3194 17.9608 
140 1 9.41024 11.6614 20.3494 
10 1 1.60454 19.4665 19.4668 
26 1 0.0233657 21.0486 21.0478 
58 1 4.3176 19.7931 19.7924 
66 1 1.27828 16.7536 19.7926 
74 1 1.27831 19.7925 16.753 
106 1 3.11816 19.6952 19.6947 
114 1 1.37608 17.9529 19.6948 
122 1 1.37601 19.6949 17.9528 
138 1 0.721553 20.3509 20.3499 
15 1 8.52384 19.4677 19.4667 
31 1 10.1054 21.0502 21.0468 
63 1 5.81045 19.7933 19.7924 
67 1 8.85064 16.7551 19.7928 
77 1 8.85084 19.7937 16.7548 
111 1 7.00988 19.6957 19.6948 
115 1 8.75218 17.9544 19.6949 
125 1 8.75235 19.6957 17.9545 
143 1 9.40882 20.3489 20.3516 
8 1 12.5468 1.60447 1.60393 
24 1 10.9655 0.0236602 0.0219237 
40 1 15.2598 1.27725 1.27869 
44 1 12.2207 4.31806 1.27806 
54 1 12.2207 1.27756 4.3171 
88 1 14.06 1.37583 1.37608 
92 1 12.3184 3.1184 1.37586 
102 1 12.3183 1.37614 3.11735 
136 1 11.6626 0.717644 0.72408 
1 1 19.4667 1.60475 1.60471 
17 1 21.0481 0.0228985 0.022973 
33 1 16.7536 1.2774 1.27847 
41 1 19.7924 4.31769 1.27844 
49 1 19.7924 1.27737 4.31755 
81 1 17.9533 1.37598 1.37611 
89 1 19.6948 3.11805 1.37611 
97 1 19.6948 1.37591 3.11816 
129 1 20.3479 0.718003 0.721356 
3 1 12.5462 8.52394 1.60828 
19 1 10.9677 10.1059 0.0242792 
35 1 15.2599 8.84966 1.27842 
45 1 12.2203 5.81073 1.278 
55 1 12.2117 8.85713 4.32414 
83 1 14.0608 8.75242 1.37735 
93 1 12.3182 7.01043 1.3772 
103 1 12.3159 8.75324 3.12434 
131 1 11.6609 9.40328 0.723481 
6 1 19.4659 8.52418 1.60407 
22 1 21.0471 10.1059 0.0222459 
38 1 16.7528 8.84977 1.27844 
48 1 19.7926 5.81017 1.27865 
52 1 19.7929 8.8506 4.31623 
86 1 17.9518 8.75189 1.37615 
96 1 19.6946 7.00972 1.37609 
100 1 19.6945 8.75238 3.11755 
134 1 20.3496 9.40762 0.72265 
5 1 12.5465 1.60715 8.52469 
21 1 10.9673 0.0232673 10.106 
37 1 15.2601 1.27727 8.85051 
47 1 12.2111 4.32091 8.85734 
51 1 12.2203 1.27791 5.8108 
85 1 14.0614 1.37661 8.75337 
95 1 12.3173 3.12104 8.75329 
99 1 12.318 1.37704 7.01046 
133 1 11.6615 0.723691 9.4056 
4 1 19.4663 1.6041 8.52402 
20 1 21.0469 0.0221961 10.1063 
36 1 16.7532 1.27732 8.85034 
46 1 19.7926 4.31659 8.85041 
56 1 19.7924 1.27771 5.81107 
84 1 17.952 1.37567 8.7527 
94 1 19.6944 3.11712 8.75271 
104 1 19.6943 1.37585 7.01037 
132 1 20.3503 0.71932 9.40514 
2 1 12.6331 8.45557 8.47174 
18 1 11.0017 10.1695 10.2252 
34 1 15.2726 8.85632 8.85874 
42 1 12.2237 5.80702 8.84991 
50 1 12.2368 8.84193 5.81293 
82 1 14.0754 8.71936 8.73058 
90 1 12.3774 7.00027 8.71465 
98 1 12.3984 8.69042 7.00259 
130 1 11.4068 9.48112 9.31851 
7 1 19.4647 8.52366 8.52431 
23 1 21.046 10.1059 10.1062 
39 1 16.7542 8.85976 8.85882 
43 1 19.7929 5.80944 8.8508 
53 1 19.793 8.85079 5.81 
87 1 17.9553 8.75294 8.75273 
91 1 19.6935 7.00888 8.7537 
101 1 19.6935 8.75337 7.00875 
135 1 20.3517 9.40745 9.40481 
ITEM: TIMESTEP
39
ITEM: NUMBER OF ATOMS
147
ITEM: BOX BOUNDS pp pp pp
0.0000000000000000e+00 2.1884000000000000e+01
0.0000000000000000e+00 2.1885999999999999e+01
0.0000000000000000e+00 2.1885000000000002e+01
ITEM: ATOMS id type x y z 
145 2 10.6161 9.27579 8.55181 
146 2 9.20126 10.1809 8.63819 
147 3 8.89533 10.0133 7.75068 
16 1 1.59876 12.5478 12.5487 
32 1 0.0223826 10.9622 10.9659 
64 1 4.31298 12.2186 12.2186 
68 1 1.27803 15.2613 12.2195 
78 1 1.27801 12.2199 15.2622 
112 1 3.11215 12.3179 12.3184 
116 1 1.37358 14.0622 12.3184 
126 1 1.37379 12.3183 14.0627 
144 1 0.716612 11.6662 11.6628 
9 1 8.52762 12.5412 12.5416 
25 1 10.1977 10.9654 11.0464 
57 1 5.80521 12.2138 12.2131 
65 1 8.856 15.2654 12.2143 
73 1 8.8548 12.2169 15.2654 
105 1 7.00576 12.3112 12.3099 
113 1 8.75627 14.0647 12.3123 
121 1 8.75363 12.3166 14.0651 
137 1 9.44584 11.6749 11.7215 
11 1 1.6042 19.4683 12.5468 
27 1 0.0236637 21.05 10.9644 
59 1 4.3169 19.7925 12.2201 
69 1 1.27804 16.7552 12.2199 
79 1 1.27833 19.7924 15.2602 
107 1 3.11802 19.6952 12.3181 
117 1 1.37572 17.9542 12.3179 
127 1 1.37599 19.6953 14.0617 
139 1 0.719933 20.3508 11.6643 
14 1 8.52315 19.4725 12.5475 
30 1 10.1069 21.0499 10.9623 
62 1 5.81009 19.7927 12.2201 
72 1 8.85243 16.7576 12.2195 
76 1 8.85113 19.7934 15.2606 
110 1 7.00892 19.6974 12.3184 
120 1 8.75282 17.9587 12.3184 
124 1 8.75248 19.698 14.0623 
142 1 9.40936 20.3544 11.6647 
13 1 1.60404 12.5468 19.4674 
29 1 0.0236342 10.9641 21.0482 
61 1 4.31798 12.2204 19.7925 
71 1 1.2784 15.2606 19.7925 
75 1 1.27826 12.22 16.7551 
109 1 3.11767 12.3184 19.6952 
119 1 1.37617 14.0612 19.6952 
123 1 1.37603 12.3182 17.9543 
141 1 0.719982 11.6642 20.3513 
12 1 8.52412 12.5472 19.4711 
28 1 10.1088 10.9631 21.0488 
60 1 5.81034 12.2206 19.7928 
70 1 8.85085 15.261 19.793 
80 1 8.85178 12.2204 16.7568 
108 1 7.01096 12.3188 19.6968 
118 1 8.75271 14.0616 19.6971 
128 1 8.75264 12.3192 17.9566 
140 1 9.40928 11.6637 20.3541 
10 1 1.60446 19.4665 19.4673 
26 1 0.0236466 21.0484 21.0501 
58 1 4.31704 19.793 19.7923 
66 1 1.27841 16.7538 19.7924 
74 1 1.27851 19.7924 16.7541 
106 1 3.11799 19.6951 19.6947 
114 1 1.37625 17.9531 19.6949 
122 1 1.37629 19.6947 17.9528 
138 1 0.720308 20.3516 20.3472 
15 1 8.5241 19.4673 19.4681 
31 1 10.1074 21.0488 21.0491 
63 1 5.81049 19.7934 19.7923 
67 1 8.85052 16.7544 19.7926 
77 1 8.85067 19.7936 16.7547 
111 1 7.00949 19.6957 19.6952 
115 1 8.75254 17.9534 19.6952 
125 1 8.75276 19.696 17.9532 
143 1 9.40706 20.3521 20.3491 
8 1 12.5468 1.604 1.60531 
24 1 10.9656 0.0210894 0.0244009 
40 1 15.2598 1.278 1.27866 
44 1 12.221 4.31789 1.27816 
54 1 12.2207 1.27829 4.3177 
88 1 14.0615 1.37538 1.37646 
92 1 12.3187 3.11896 1.37605 
102 1 12.3188 1.37573 3.11918 
136 1 11.663 0.723986 0.721096 
1 1 19.4658 1.60301 1.60453 
17 1 21.0468 0.0202461 0.0234357 
33 1 16.7531 1.27806 1.27868 
41 1 19.7924 4.31675 1.27865 
49 1 19.7924 1.27805 4.31731 
81 1 17.9517 1.37553 1.37661 
89 1 19.6946 3.11776 1.37643 
97 1 19.6945 1.37547 3.11844 
129 1 20.3501 0.723184 0.720125 
3 1 12.5446 8.52411 1.61359 
19 1 10.9655 10.1018 0.0254325 
35 1 15.2585 8.84946 1.27902 
45 1 12.2212 5.81129 1.27861 
55 1 12.2181 8.85379 4.32601 
83 1 14.0582 8.75171 1.37944 
93 1 12.3181 7.0103 1.3791 
103 1 12.311 8.75678 3.12476 
131 1 11.6662 9.40728 0.724655 
6 1 19.4655 8.5241 1.60419 
22 1 21.0471 10.1058 0.0239165 
38 1 16.7514 8.84941 1.2784 
48 1 19.7923 5.81059 1.27859 
52 1 19.7928 8.85059 4.31677 
86 1 17.9514 8.75201 1.3761 
96 1 19.6946 7.00976 1.37625 
100 1 19.6947 8.75237 3.11669 
134 1 20.3492 9.40657 0.720203 
5 1 12.5453 1.61038 8.52373 
21 1 10.965 0.025056 10.1027 
37 1 15.2599 1.27787 8.85061 
47 1 12.2141 4.32271 8.85599 
51 1 12.2209 1.27842 5.8105 
85 1 14.0591 1.37764 8.75251 
95 1 12.3119 3.12133 8.75602 
99 1 12.3181 1.37794 7.00934 
133 1 11.6681 0.721728 9.40747 
4 1 19.4662 1.60325 8.5235 
20 1 21.0478 0.0219649 10.1045 
36 1 16.7528 1.27758 8.85045 
46 1 19.7926 4.3159 8.85074 
56 1 19.7921 1.27784 5.81031 
84 1 17.9518 1.37516 8.75225 
94 1 19.6948 3.11709 8.75228 
104 1 19.6945 1.37558 7.00944 
132 1 20.3481 0.720815 9.40772 
2 1 12.6152 8.469 8.47793 
18 1 10.9899 10.1619 10.2099 
34 1 15.2705 8.84677 8.8533 
42 1 12.2415 5.80721 8.84051 
50 1 12.259 8.82478 5.80957 
82 1 14.0681 8.73218 8.74086 
90 1 12.3627 7.00623 8.72459 
98 1 12.3843 8.70189 7.00804 
130 1 11.4276 9.46957 9.31097 
7 1 19.4662 8.52326 8.5226 
23 1 21.0492 10.1043 10.1028 
39 1 16.7551 8.85938 8.85925 
43 1 19.792 5.80899 8.85142 
53 1 19.7922 8.8513 5.80858 
87 1 17.9544 8.75726 8.75612 
91 1 19.6948 7.00829 8.75265 
101 1 19.6946 8.75226 7.00891 
135 1 20.3459 9.40815 9.40707 
ITEM: TIMESTEP
40
ITEM: NUMBER OF ATOMS
147
ITEM: BOX BOUNDS pp pp pp
0.0000000000000000e+00 2.1884000000000000e+01
0.0000000000000000e+00 2.1885999999999999e+01
0.0000000000000000e+00 2.1885000000000002e+01
ITEM: ATOMS id type x y z 
145 2 10.6161 9.27579 8.5519 
146 2 9.20104 10.181 8.63821 
147 3 8.89535 10.0132 7.75056 
16 1 1.59878 12.5478 12.5487 
32 1 0.0223889 10.9622 10.9658 
64 1 4.31266 12.2186 12.2186 
68 1 1.27802 15.2614 12.2195 
78 1 1.278 12.2199 15.2622 
112 1 3.11258 12.3179 12.3184 
116 1 1.37358 14.0622 12.3184 
126 1 1.37379 12.3183 14.0627 
144 1 0.716614 11.6661 11.6629 
9 1 8.52776 12.5412 12.5415 
25 1 10.1968 10.9664 11.0474 
57 1 5.80515 12.2138 12.2131 
65 1 8.85596 15.2654 12.2143 
73 1 8.85477 12.2169 15.2655 
105 1 7.00566 12.3112 12.3099 
113 1 8.75631 14.0649 12.3122 
121 1 8.75365 12.3166 14.0651 
137 1 9.44716 11.6737 11.7203 
11 1 1.60417 19.4683 12.5468 
27 1 0.0236378 21.0499 10.9644 
59 1 4.31694 19.7925 12.2201 
69 1 1.27804 16.7551 12.2199 
79 1 1.27832 19.7925 15.2603 
107 1 3.11788 19.6952 12.3181 
117 1 1.37573 17.9542 12.3179 
127 1 1.37601 19.6953 14.0615 
139 1 0.72 20.3508 11.6642 
14 1 8.52319 19.4725 12.5475 
30 1 10.1069 21.0498 10.9624 
62 1 5.80997 19.7928 12.2201 
72 1 8.85239 16.7579 12.2195 
76 1 8.85114 19.7935 15.2608 
110 1 7.00916 19.6974 12.3184 
120 1 8.75285 17.9582 12.3183 
124 1 8.75245 19.698 14.062 
142 1 9.40935 20.3544 11.6646 
13 1 1.60403 12.5468 19.4674 
29 1 0.0235221 10.964 21.0483 
61 1 4.31785 12.2204 19.7925 
71 1 1.2784 15.2606 19.7925 
75 1 1.27826 12.22 16.7551 
109 1 3.11789 12.3184 19.6952 
119 1 1.37617 14.0612 19.6952 
123 1 1.37603 12.3182 17.9544 
141 1 0.720155 11.6643 20.3512 
12 1 8.52411 12.5472 19.4711 
28 1 10.1087 10.9631 21.0489 
60 1 5.81051 12.2206 19.7928 
70 1 8.85085 15.261 19.793 
80 1 8.85179 12.2204 16.7569 
108 1 7.01071 12.3188 19.6968 
118 1 8.7527 14.0616 19.6971 
128 1 8.75265 12.3192 17.9566 
140 1 9.40934 11.6637 20.3541 
10 1 1.60444 19.4665 19.4673 
26 1 0.0236906 21.0483 21.0499 
58 1 4.31707 19.7931 19.7923 
66 1 1.27841 16.7538 19.7924 
74 1 1.2785 19.7924 16.754 
106 1 3.11795 19.6951 19.6947 
114 1 1.37625 17.9531 19.6949 
122 1 1.3763 19.6947 17.9529 
138 1 0.720221 20.3517 20.3474 
15 1 8.52407 19.4674 19.4681 
31 1 10.1073 21.0487 21.049 
63 1 5.81044 19.7934 19.7924 
67 1 8.85052 16.7544 19.7926 
77 1 8.85068 19.7936 16.7546 
111 1 7.00961 19.6957 19.6952 
115 1 8.75253 17.9535 19.6952 
125 1 8.75274 19.6959 17.9534 
143 1 9.40726 20.3522 20.3493 
8 1 12.5468 1.60405 1.60528 
24 1 10.9657 0.0212343 0.0244688 
40 1 15.2599 1.27797 1.27863 
44 1 12.221 4.31794 1.27815 
54 1 12.2207 1.27826 4.31783 
88 1 14.0612 1.37541 1.37649 
92 1 12.3187 3.11884 1.37607 
102 1 12.3188 1.37576 3.1189 
136 1 11.6628 0.723776 0.720996 
1 1 19.4658 1.60306 1.60451 
17 1 21.0468 0.0203726 0.0235032 
33 1 16.7531 1.27804 1.27867 
41 1 19.7924 4.31679 1.27865 
49 1 19.7924 1.27803 4.31738 
81 1 17.9519 1.37555 1.37662 
89 1 19.6946 3.11771 1.37644 
97 1 19.6945 1.37548 3.11829 
129 1 20.3502 0.723011 0.72005 
3 1 12.5446 8.52415 1.61355 
19 1 10.9655 10.1019 0.025382 
35 1 15.2583 8.84943 1.27905 
45 1 12.2212 5.81126 1.27861 
55 1 12.2181 8.85375 4.32614 
83 1 14.0585 8.75174 1.37944 
93 1 12.3181 7.01034 1.37912 
103 1 12.311 8.75677 3.12453 
131 1 11.6662 9.40724 0.72469 
6 1 19.4655 8.52408 1.60415 
22 1 21.0471 10.1059 0.0237854 
38 1 16.7515 8.84939 1.27841 
48 1 19.7923 5.81057 1.27859 
52 1 19.7928 8.85058 4.31668 
86 1 17.9513 8.75202 1.37608 
96 1 19.6946 7.00977 1.37625 
100 1 19.6947 8.75238 3.11683 
134 1 20.3491 9.40647 0.720401 
5 1 12.5454 1.61033 8.52375 
21 1 10.965 0.0249952 10.1028 
37 1 15.2596 1.27791 8.85057 
47 1 12.2141 4.32269 8.85596 
51 1 12.2208 1.2784 5.81044 
85 1 14.0595 1.37762 8.75254 
95 1 12.3118 3.12134 8.75603 
99 1 12.3182 1.37797 7.00951 
133 1 11.668 0.721766 9.40749 
4 1 19.4661 1.60328 8.52353 
20 1 21.0478 0.0220177 10.1046 
36 1 16.7526 1.27757 8.85046 
46 1 19.7926 4.31599 8.85076 
56 1 19.7921 1.27784 5.81031 
84 1 17.9519 1.37517 8.75224 
94 1 19.6948 3.11696 8.75227 
104 1 19.6945 1.37558 7.00951 
132 1 20.3482 0.720737 9.40765 
2 1 12.6152 8.46911 8.47811 
18 1 10.9898 10.1618 10.2098 
34 1 15.2698 8.84673 8.85325 
42 1 12.2415 5.80721 8.84053 
50 1 12.259 8.82477 5.80974 
82 1 14.0688 8.73226 8.74095 
90 1 12.3627 7.00619 8.72461 
98 1 12.3844 8.7019 7.00786 
130 1 11.4271 9.46981 9.31108 
7 1 19.4662 8.52327 8.52263 
23 1 21.0491 10.1043 10.1029 
39 1 16.7546 8.85939 8.85928 
43 1 19.7921 5.80902 8.85141 
53 1 19.7922 8.85127 5.80874 
87 1 17.9549 8.75723 8.75608 
91 1 19.6948 7.00832 8.75264 
101 1 19.6946 8.75228 7.00871 
135 1 20.346 9.40815 9.40706 
ITEM: TIMESTEP
50
ITEM: NUMBER OF ATOMS
147
ITEM: BOX BOUNDS pp pp pp
0.0000000000000000e+00 2.1884000000000000e+01
0.0000000000000000e+00 2.1885999999999999e+01
0.0000000000000000e+00 2.1885000000000002e+01
ITEM: ATOMS id type x y z 
145 2 10.6168 9.27542 8.55327 
146 2 9.19481 10.1835 8.63821 
147 3 8.89599 10.0116 7.74743 
16 1 1.59909 12.5482 12.5483 
32 1 0.0220918 10.9636 10.9653 
64 1 4.31205 12.2185 12.2185 
68 1 1.27789 15.2616 12.2197 
78 1 1.27793 12.22 15.2619 
112 1 3.11379 12.318 12.3185 
116 1 1.37369 14.062 12.3185 
126 1 1.37379 12.3185 14.0624 
144 1 0.717579 11.6647 11.6636 
9 1 8.53025 12.5402 12.5409 
25 1 10.2002 10.966 11.0493 
57 1 5.80548 12.2144 12.2134 
65 1 8.855 15.2655 12.2149 
73 1 8.85378 12.2177 15.2662 
105 1 7.00572 12.3102 12.3092 
113 1 8.75688 14.0655 12.312 
121 1 8.75398 12.3164 14.0657 
137 1 9.44915 11.6738 11.7202 
11 1 1.60372 19.468 12.5471 
27 1 0.0231044 21.0495 10.965 
59 1 4.31713 19.7924 12.2201 
69 1 1.27817 16.7547 12.2199 
79 1 1.27835 19.7925 15.2607 
107 1 3.1175 19.6952 12.3182 
117 1 1.37572 17.9541 12.318 
127 1 1.37604 19.6952 14.0609 
139 1 0.721088 20.3512 11.6635 
14 1 8.52383 19.4719 12.5476 
30 1 10.1068 21.0502 10.9633 
62 1 5.81008 19.7929 12.2202 
72 1 8.85234 16.7587 12.2193 
76 1 8.85091 19.7937 15.2612 
110 1 7.01008 19.6973 12.3185 
120 1 8.7529 17.957 12.3185 
124 1 8.75243 19.6978 14.0612 
142 1 9.40851 20.3539 11.6635 
13 1 1.60397 12.5472 19.4677 
29 1 0.022793 10.9646 21.0488 
61 1 4.3175 12.2205 19.7924 
71 1 1.27847 15.2605 19.7925 
75 1 1.27834 12.22 16.7549 
109 1 3.11866 12.3184 19.6952 
119 1 1.37616 14.0612 19.6952 
123 1 1.37601 12.3182 17.9543 
141 1 0.721257 11.6637 20.3505 
12 1 8.52446 12.5474 19.471 
28 1 10.1082 10.9635 21.0495 
60 1 5.81114 12.2207 19.7928 
70 1 8.85068 15.261 19.7931 
80 1 8.85194 12.2202 16.7575 
108 1 7.0101 12.3187 19.6968 
118 1 8.75269 14.0614 19.697 
128 1 8.75262 12.3193 17.957 
140 1 9.40935 11.6631 20.353 
10 1 1.60417 19.467 19.4667 
26 1 0.0233069 21.0485 21.0488 
58 1 4.31738 19.793 19.7923 
66 1 1.27845 16.7537 19.7924 
74 1 1.2785 19.7924 16.7536 
106 1 3.11797 19.6951 19.6948 
114 1 1.37619 17.953 19.6949 
122 1 1.37631 19.6947 17.9532 
138 1 0.720472 20.3511 20.3491 
15 1 8.52398 19.4679 19.4675 
31 1 10.1065 21.0489 21.0483 
63 1 5.81049 19.7933 19.7923 
67 1 8.85048 16.7542 19.7925 
77 1 8.85071 19.7935 16.7542 
111 1 7.01007 19.6956 19.6951 
115 1 8.75245 17.9538 19.6952 
125 1 8.75259 19.6958 17.9539 
143 1 9.40806 20.3513 20.3504 
8 1 12.5466 1.60477 1.60482 
24 1 10.9656 0.0223972 0.0240754 
40 1 15.2601 1.27788 1.27863 