ITEM: TIMESTEP
0
ITEM: NUMBER OF ATOMS
201
ITEM: BOX BOUNDS pp pp pp
0.0000000000000000e+00 1.6114000000000001e+01
0.0000000000000000e+00 1.6113000000000000e+01
0.0000000000000000e+00 1.6111999999999998e+01
ITEM: ATOMS id type x y z 
5 1 5.384 5.384 5.384 
65 1 5.66 6.662 2.461 
66 1 5.336 7.323 3.711 
68 1 4.865 6.606 4.866 
79 1 5.364 7.322 1.219 
89 1 6.662 2.461 5.66 
90 1 7.323 3.711 5.336 
92 1 6.606 4.866 4.866 
101 1 7.322 1.219 5.364 
109 1 2.461 5.66 6.662 
110 1 3.71 5.336 7.323 
112 1 4.865 4.866 6.606 
121 1 1.218 5.364 7.322 
129 1 6.662 5.66 2.461 
130 1 7.323 5.336 3.711 
137 1 7.322 5.364 1.219 
141 1 2.461 6.662 5.66 
142 1 3.71 7.323 5.336 
149 1 1.218 7.322 5.364 
153 1 5.66 2.461 6.662 
154 1 5.336 3.711 7.323 
161 1 5.364 1.219 7.322 
7 1 6.662 5.66 13.616 
8 1 7.323 5.336 12.366 
10 1 6.606 4.866 11.211 
21 1 7.322 5.364 14.858 
32 1 1.218 7.322 10.713 
40 1 2.461 6.662 10.417 
41 1 3.71 7.323 10.741 
43 1 4.865 6.606 11.211 
47 1 5.364 1.219 8.755 
55 1 5.66 2.461 9.415 
56 1 5.336 3.711 8.754 
58 1 4.865 4.866 9.471 
64 1 5.629 6.643 16.094 
75 1 5.384 5.384 10.693 
118 1 6.643 5.629 16.094 
168 1 5.66 6.662 13.616 
169 1 5.336 7.323 12.366 
176 1 5.364 7.322 14.858 
182 1 7.322 1.219 10.713 
186 1 6.662 2.461 10.417 
187 1 7.323 3.711 10.741 
191 1 1.218 5.364 8.755 
195 1 2.461 5.66 9.415 
196 1 3.71 5.336 8.754 
9 1 7.322 10.713 1.219 
19 1 6.662 10.417 2.461 
20 1 7.323 10.741 3.711 
22 1 6.606 11.211 4.866 
27 1 1.218 8.755 5.364 
35 1 2.461 9.415 5.66 
36 1 3.71 8.754 5.336 
38 1 4.865 9.471 4.866 
44 1 6.643 16.095 5.63 
50 1 5.66 13.616 6.662 
51 1 5.336 12.366 7.323 
53 1 4.865 11.211 6.606 
62 1 5.364 14.858 7.322 
76 1 5.629 16.095 6.643 
81 1 5.384 10.693 5.384 
167 1 5.364 8.755 1.219 
171 1 5.66 9.415 2.461 
172 1 5.336 8.754 3.711 
180 1 6.662 13.616 5.66 
181 1 7.323 12.366 5.336 
188 1 7.322 14.858 5.364 
194 1 1.218 10.713 7.322 
198 1 2.461 10.417 6.662 
199 1 3.71 10.741 7.323 
17 1 5.384 10.693 10.693 
39 1 6.643 16.095 10.448 
49 1 5.629 9.434 16.095 
73 1 5.364 8.755 14.858 
82 1 5.629 16.095 9.434 
83 1 5.66 9.415 13.616 
84 1 5.336 8.754 12.366 
86 1 4.865 9.471 11.211 
91 1 7.322 14.858 10.713 
99 1 6.662 13.616 10.417 
100 1 7.323 12.366 10.741 
102 1 6.606 11.211 11.211 
113 1 6.643 10.448 16.094 
114 1 2.461 10.417 9.415 
115 1 3.71 10.741 8.754 
117 1 4.865 11.211 9.471 
126 1 1.218 10.713 8.755 
131 1 7.322 10.713 14.858 
135 1 6.662 10.417 13.616 
136 1 7.323 10.741 12.366 
144 1 2.461 9.415 10.417 
145 1 3.71 8.754 10.741 
152 1 1.218 8.755 10.713 
158 1 5.364 14.858 8.755 
162 1 5.66 13.616 9.415 
163 1 5.336 12.366 8.754 
3 1 8.755 5.364 1.219 
13 1 9.415 5.66 2.461 
14 1 8.754 5.336 3.711 
16 1 9.471 4.866 4.866 
24 1 16.095 5.629 6.643 
30 1 13.616 6.662 5.66 
31 1 12.367 7.323 5.336 
33 1 11.212 6.606 4.866 
42 1 14.859 7.322 5.364 
52 1 10.713 1.219 7.322 
60 1 10.417 2.461 6.662 
61 1 10.741 3.711 7.323 
63 1 11.212 4.866 6.606 
87 1 10.693 5.384 5.384 
98 1 16.095 6.643 5.63 
170 1 10.713 7.322 1.219 
174 1 10.417 6.662 2.461 
175 1 10.741 7.323 3.711 
179 1 8.755 1.219 5.364 
183 1 9.415 2.461 5.66 
184 1 8.754 3.711 5.336 
192 1 13.616 5.66 6.662 
193 1 12.367 5.336 7.323 
200 1 14.859 5.364 7.322 
6 1 16.096 5.629 9.434 
23 1 10.693 5.384 10.693 
59 1 10.448 6.643 16.095 
67 1 10.713 7.322 14.858 
77 1 10.417 6.662 13.616 
78 1 10.741 7.323 12.366 
80 1 11.212 6.606 11.211 
93 1 16.096 6.643 10.448 
94 1 9.415 2.461 10.417 
95 1 8.754 3.711 10.741 
97 1 9.471 4.866 11.211 
106 1 8.755 1.219 10.713 
116 1 14.859 5.364 8.755 
123 1 9.434 5.629 16.094 
124 1 13.616 5.66 9.415 
125 1 12.367 5.336 8.754 
127 1 11.212 4.866 9.471 
134 1 8.755 5.364 14.858 
138 1 9.415 5.66 13.616 
139 1 8.754 5.336 12.366 
143 1 14.859 7.322 10.713 
147 1 13.616 6.662 10.417 
148 1 12.367 7.323 10.741 
156 1 10.417 2.461 9.415 
157 1 10.741 3.711 8.754 
164 1 10.713 1.219 8.755 
11 1 10.693 10.693 5.384 
18 1 16.096 10.448 6.643 
29 1 9.434 16.095 5.63 
70 1 10.448 16.095 6.643 
71 1 10.417 9.415 2.461 
72 1 10.741 8.754 3.711 
74 1 11.212 9.471 4.866 
85 1 10.713 8.755 1.219 
96 1 8.755 14.858 5.364 
103 1 16.095 9.434 5.63 
104 1 9.415 13.616 5.66 
105 1 8.754 12.366 5.336 
107 1 9.471 11.211 4.866 
111 1 14.859 10.713 7.322 
119 1 13.616 10.417 6.662 
120 1 12.367 10.741 7.323 
122 1 11.212 11.211 6.606 
132 1 9.415 10.417 2.461 
133 1 8.754 10.741 3.711 
140 1 8.755 10.713 1.219 
146 1 14.859 8.755 5.364 
150 1 13.616 9.415 5.66 
151 1 12.367 8.754 5.336 
155 1 10.713 14.858 7.322 
159 1 10.417 13.616 6.662 
160 1 10.741 12.366 7.323 
1 1 9.415 10.417 13.616 
2 1 8.754 10.741 12.366 
4 1 9.471 11.211 11.211 
12 1 16.096 10.448 9.434 
15 1 8.755 10.713 14.858 
25 1 13.616 9.415 10.417 
26 1 12.367 8.754 10.741 
28 1 11.212 9.471 11.211 
34 1 9.434 16.095 10.448 
37 1 14.859 8.755 10.713 
45 1 10.417 13.616 9.415 
46 1 10.741 12.366 8.754 
48 1 11.212 11.211 9.471 
54 1 10.448 9.434 16.094 
57 1 10.713 14.858 8.755 
69 1 10.693 10.693 10.693 
88 1 10.448 16.095 9.434 
108 1 16.096 9.434 10.448 
128 1 9.434 10.448 16.094 
165 1 10.417 9.415 13.616 
166 1 10.741 8.754 12.366 
173 1 10.713 8.755 14.858 
177 1 9.415 13.616 10.417 
178 1 8.754 12.366 10.741 
185 1 8.755 14.858 10.713 
189 1 13.616 10.417 9.415 
190 1 12.367 10.741 8.754 
197 1 14.859 10.713 8.755 
201 2 8.754 11.841 12.366 
ITEM: TIMESTEP
10
ITEM: NUMBER OF ATOMS
201
ITEM: BOX BOUNDS pp pp pp
0.0000000000000000e+00 1.6114000000000001e+01
0.0000000000000000e+00 1.6113000000000000e+01
0.0000000000000000e+00 1.6111999999999998e+01
ITEM: ATOMS id type x y z 
5 1 5.34101 5.3402 5.33904 
65 1 5.57748 6.59519 2.42469 
66 1 5.37991 7.32624 3.69667 
68 1 4.87486 6.62058 4.8746 
79 1 5.23749 7.31093 1.20118 
89 1 6.59448 2.42336 5.57739 
90 1 7.32531 3.69799 5.37886 
92 1 6.62019 4.87552 4.87565 
101 1 7.31023 1.20004 5.23712 
109 1 2.42333 5.57694 6.59433 
110 1 3.69589 5.38019 7.32473 
112 1 4.87478 4.87532 6.62019 
121 1 1.19973 5.23637 7.30912 
129 1 6.59424 5.57802 2.4236 
130 1 7.32509 5.37895 3.69755 
137 1 7.3103 5.23732 1.20077 
141 1 2.42294 6.59453 5.5769 
142 1 3.69653 7.32511 5.37977 
149 1 1.19971 7.30935 5.2369 
153 1 5.57686 2.42328 6.59541 
154 1 5.38036 3.69626 7.32478 
161 1 5.23768 1.20011 7.30986 
7 1 6.59526 5.57542 13.6542 
8 1 7.3269 5.3792 12.3788 
10 1 6.62213 4.87393 11.201 
21 1 7.31137 5.23675 14.8768 
32 1 1.20019 7.3082 10.8405 
40 1 2.42246 6.5945 10.5 
41 1 3.69413 7.32679 10.6961 
43 1 4.87349 6.62127 11.2014 
47 1 5.23808 1.19994 8.76801 
55 1 5.57854 2.42292 9.48292 
56 1 5.38066 3.69436 8.75099 
58 1 4.87572 4.87448 9.45549 
64 1 5.53365 6.56475 16.0951 
75 1 5.34105 5.33995 10.7394 
118 1 6.564 5.53407 16.0941 
168 1 5.57725 6.59272 13.6546 
169 1 5.37992 7.32434 12.381 
176 1 5.23605 7.30747 14.8775 
182 1 7.31133 1.20245 10.84 
186 1 6.59495 2.42199 10.4988 
187 1 7.32733 3.69638 10.6974 
191 1 1.20032 5.23623 8.76695 
195 1 2.42215 5.57698 9.48343 
196 1 3.69536 5.38023 8.75064 
9 1 7.31114 10.8403 1.20227 
19 1 6.59574 10.4983 2.42248 
20 1 7.32663 10.698 3.69525 
22 1 6.62153 11.2007 4.87381 
27 1 1.19985 8.76717 5.23667 
35 1 2.42284 9.48243 5.57668 
36 1 3.69586 8.75113 5.37987 
38 1 4.87551 9.45518 4.87335 
44 1 6.56422 16.0949 5.53482 
50 1 5.57758 13.6532 6.59429 
51 1 5.38015 12.3809 7.32536 
53 1 4.87416 11.2021 6.62195 
62 1 5.23689 14.8766 7.30967 
76 1 5.53348 16.0955 6.56572 
81 1 5.3408 10.7381 5.33956 
167 1 5.23902 8.76952 1.19885 
171 1 5.57942 9.48296 2.42399 
172 1 5.37982 8.75082 3.69557 
180 1 6.59452 13.6538 5.57722 
181 1 7.32506 12.3797 5.37914 
188 1 7.30991 14.8765 5.23716 
194 1 1.20031 10.8407 7.30981 
198 1 2.42344 10.5004 6.59531 
199 1 3.69674 10.6973 7.32692 
17 1 5.35197 10.7369 10.7379 
39 1 6.56172 16.1007 10.543 
49 1 5.53411 9.51368 16.0946 
73 1 5.23753 8.77027 14.8746 
82 1 5.53338 16.095 9.51248 
83 1 5.57736 9.4851 13.6573 
84 1 5.38165 8.75416 12.3859 
86 1 4.87539 9.46239 11.2017 
91 1 7.31384 14.8787 10.8414 
99 1 6.60049 13.6445 10.5014 
100 1 7.33448 12.377 10.6864 
102 1 6.63447 11.2023 11.2137 
113 1 6.5695 10.5453 16.0873 
114 1 2.42388 10.5002 9.48378 
115 1 3.69768 10.6988 8.75176 
117 1 4.87781 11.201 9.4651 
126 1 1.19987 10.8409 8.76618 
131 1 7.31386 10.8346 14.869 
135 1 6.60382 10.4941 13.6496 
136 1 7.30878 10.5874 12.3535 
144 1 2.42193 9.48353 10.499 
145 1 3.69464 8.75228 10.6948 
152 1 1.20189 8.76765 10.8404 
158 1 5.23753 14.877 8.76816 
162 1 5.57882 13.6532 9.48159 
163 1 5.3817 12.3808 8.75164 
3 1 8.76825 5.23793 1.2001 
13 1 9.48298 5.57859 2.42325 
14 1 8.75212 5.37888 3.69708 
16 1 9.4569 4.87582 4.87562 
24 1 16.0951 5.53322 6.56415 
30 1 13.6539 6.59399 5.57749 
31 1 12.3809 7.32536 5.37988 
33 1 11.2018 6.62051 4.87452 
42 1 14.8766 7.3093 5.23683 
52 1 10.8388 1.20158 7.31192 
60 1 10.4991 2.42344 6.59609 
61 1 10.6973 3.69582 7.32683 
63 1 11.2019 4.8749 6.62043 
87 1 10.737 5.34001 5.34015 
98 1 16.0955 6.56444 5.53378 
170 1 10.839 7.31084 1.20173 
174 1 10.4994 6.59632 2.4233 
175 1 10.6971 7.32614 3.69623 
179 1 8.76848 1.19994 5.2379 
183 1 9.48322 2.42322 5.57886 
184 1 8.75203 3.69661 5.37906 
192 1 13.6535 5.57744 6.59442 
193 1 12.3809 5.37947 7.32627 
200 1 14.8764 5.23678 7.30957 
6 1 16.095 5.53294 9.51301 
23 1 10.7364 5.34045 10.7367 
59 1 10.5427 6.5649 16.0964 
67 1 10.84 7.31171 14.8762 
77 1 10.4983 6.59429 13.6538 
78 1 10.6982 7.3217 12.3792 
80 1 11.2001 6.61559 11.2011 
93 1 16.0956 6.56444 10.5443 
94 1 9.48262 2.42313 10.498 
95 1 8.75294 3.69487 10.6977 
97 1 9.45632 4.87398 11.2013 
106 1 8.76567 1.20273 10.8398 
116 1 14.8757 5.23672 8.76725 
123 1 9.51282 5.5345 16.094 
124 1 13.6533 5.57703 9.48199 
125 1 12.3808 5.37957 8.75145 
127 1 11.2015 4.87368 9.45661 
134 1 8.76752 5.23775 14.8763 
138 1 9.48238 5.57817 13.6532 
139 1 8.75275 5.37955 12.3795 
143 1 14.8769 7.30879 10.8405 
147 1 13.6561 6.59219 10.4992 
148 1 12.3798 7.32227 10.6973 
156 1 10.4982 2.42316 9.48164 
157 1 10.6977 3.69547 8.75131 
164 1 10.8376 1.20013 8.76762 
11 1 10.7368 10.7387 5.34113 
18 1 16.0957 10.5443 6.56443 
29 1 9.51262 16.0949 5.53561 
70 1 10.5426 16.0953 6.56574 
71 1 10.4984 9.48199 2.42376 
72 1 10.6968 8.75119 3.69403 
74 1 11.2012 9.45719 4.87457 
85 1 10.8383 8.76662 1.20311 
96 1 8.76841 14.8764 5.23782 
103 1 16.0953 9.51223 5.53325 
104 1 9.48239 13.6537 5.57781 
105 1 8.75248 12.3807 5.37936 
107 1 9.45662 11.1999 4.87333 
111 1 14.8772 10.8407 7.30931 
119 1 13.6585 10.4992 6.59122 
120 1 12.3799 10.6957 7.31923 
122 1 11.199 11.2013 6.61595 
132 1 9.48342 10.4979 2.42308 
133 1 8.75094 10.6984 3.69514 
140 1 8.76829 10.8389 1.19725 
146 1 14.8764 8.76758 5.23678 
150 1 13.6538 9.48185 5.57637 
151 1 12.3817 8.7512 5.38015 
155 1 10.8399 14.876 7.30936 
159 1 10.4981 13.6559 6.59259 
160 1 10.6951 12.3799 7.32481 
1 1 9.47971 10.4703 13.641 
2 1 8.77346 10.8966 12.3715 
4 1 9.41568 11.1178 11.0825 
12 1 16.0966 10.5438 9.5135 
15 1 8.76731 10.8351 14.8679 
25 1 13.6588 9.48338 10.5026 
26 1 12.3965 8.74187 10.686 
28 1 11.221 9.44534 11.211 
34 1 9.50993 16.0902 10.5447 
37 1 14.8791 8.76657 10.8418 
45 1 10.5003 13.6561 9.48403 
46 1 10.6882 12.387 8.74884 
48 1 11.2213 11.2098 9.44386 
54 1 10.5408 9.51383 16.0929 
57 1 10.8386 14.8764 8.76732 
69 1 10.7335 10.7232 10.7237 
88 1 10.5442 16.0959 9.51206 
108 1 16.0955 9.51417 10.5436 
128 1 9.50635 10.5432 16.0891 
165 1 10.4862 9.46685 13.6531 
166 1 10.6925 8.73948 12.3836 
173 1 10.838 8.76592 14.877 
177 1 9.48066 13.6445 10.5069 
178 1 8.76812 12.3318 10.6381 
185 1 8.7692 14.8695 10.8351 
189 1 13.6612 10.5019 9.48625 
190 1 12.396 10.6855 8.74241 
197 1 14.8804 10.8421 8.76553 
201 2 8.65367 12.0058 12.6523 
ITEM: TIMESTEP
20
ITEM: NUMBER OF ATOMS
201
ITEM: BOX BOUNDS pp pp pp
0.0000000000000000e+00 1.6114000000000001e+01
0.0000000000000000e+00 1.6113000000000000e+01
0.0000000000000000e+00 1.6111999999999998e+01
ITEM: ATOMS id type x y z 
5 1 5.35077 5.35066 5.35056 
65 1 5.58136 6.59819 2.41993 
66 1 5.37191 7.3256 3.69086 
68 1 4.86881 6.6169 4.86957 
79 1 5.23276 7.31077 1.19813 
89 1 6.59839 2.41979 5.58108 
90 1 7.32584 3.69076 5.37109 
92 1 6.61716 4.86944 4.8697 
101 1 7.3098 1.19774 5.2327 
109 1 2.41929 5.58068 6.59793 
110 1 3.69008 5.37204 7.32522 
112 1 4.8687 4.86979 6.61669 
121 1 1.19726 5.23181 7.3092 
129 1 6.59824 5.58137 2.42008 
130 1 7.32587 5.37118 3.6907 
137 1 7.30981 5.23262 1.19833 
141 1 2.4192 6.59797 5.58078 
142 1 3.69013 7.3256 5.37175 
149 1 1.1972 7.3095 5.23222 
153 1 5.58128 2.41956 6.59782 
154 1 5.37222 3.69056 7.32508 
161 1 5.23251 1.19803 7.30908 
7 1 6.59828 5.58026 13.6571 
8 1 7.32646 5.37104 12.3859 
10 1 6.61723 4.86983 11.2067 
21 1 7.3095 5.23193 14.8788 
32 1 1.19744 7.30866 10.8454 
40 1 2.41937 6.59805 10.4962 
41 1 3.68979 7.32794 10.7042 
43 1 4.86879 6.61865 11.2089 
47 1 5.2324 1.19753 8.7681 
55 1 5.58096 2.41993 9.4787 
56 1 5.3721 3.69031 8.7514 
58 1 4.86985 4.86945 9.46006 
64 1 5.53114 6.56297 16.0938 
75 1 5.35048 5.35054 10.7271 
118 1 6.56209 5.53168 16.0944 
168 1 5.58079 6.59804 13.6572 
169 1 5.37151 7.32764 12.3876 
176 1 5.23211 7.31 14.8785 
182 1 7.30985 1.19802 10.8454 
186 1 6.59848 2.41905 10.4962 
187 1 7.32698 3.69107 10.7055 
191 1 1.19736 5.23176 8.7674 
195 1 2.41877 5.58038 9.47913 
196 1 3.69013 5.37162 8.75133 
9 1 7.30949 10.8438 1.19298 
19 1 6.60055 10.4969 2.41669 
20 1 7.32555 10.706 3.68953 
22 1 6.61734 11.207 4.86921 
27 1 1.19769 8.76758 5.23224 
35 1 2.41909 9.47904 5.581 
36 1 3.69026 8.75159 5.37144 
38 1 4.86921 9.46003 4.86923 
44 1 6.56247 16.0951 5.53216 
50 1 5.58134 13.6569 6.59773 
51 1 5.3724 12.3863 7.32643 
53 1 4.86861 11.2075 6.61777 
62 1 5.23217 14.8788 7.30958 
76 1 5.53156 16.0949 6.56262 
81 1 5.35049 10.7264 5.35045 
167 1 5.2344 8.77069 1.19413 
171 1 5.58196 9.47924 2.41929 
172 1 5.37168 8.75166 3.69081 
180 1 6.59843 13.6569 5.58083 
181 1 7.32522 12.3862 5.37101 
188 1 7.30916 14.879 5.23248 
194 1 1.19822 10.8454 7.30892 
198 1 2.42045 10.496 6.5988 
199 1 3.69079 10.7052 7.32805 
17 1 5.36055 10.7251 10.7281 
39 1 6.56476 16.0919 10.5477 
49 1 5.53669 9.51803 16.0922 
73 1 5.23394 8.77102 14.8776 
82 1 5.53119 16.0944 9.51527 
83 1 5.58055 9.47876 13.6587 
84 1 5.36919 8.75493 12.3908 
86 1 4.87279 9.46735 11.208 
91 1 7.31249 14.8752 10.8416 
99 1 6.60632 13.6494 10.4982 
100 1 7.3405 12.3792 10.6928 
102 1 6.63289 11.1909 11.2256 
113 1 6.57217 10.5474 16.0802 
114 1 2.42122 10.4975 9.47916 
115 1 3.69458 10.7081 8.75516 
117 1 4.8743 11.2061 9.47023 
126 1 1.19861 10.8457 8.76699 
131 1 7.31804 10.835 14.8666 
135 1 6.62283 10.4759 13.6358 
136 1 7.31498 10.6061 12.3607 
144 1 2.42065 9.47933 10.496 
145 1 3.69308 8.75573 10.7054 
152 1 1.19898 8.76747 10.8452 
158 1 5.23409 14.8753 8.77065 
162 1 5.58716 13.6556 9.48064 
163 1 5.37315 12.3876 8.75548 
3 1 8.76771 5.23281 1.19815 
13 1 9.47882 5.58141 2.41999 
14 1 8.75159 5.37092 3.69125 
16 1 9.46077 4.86985 4.86992 
24 1 16.0952 5.53104 6.56219 
30 1 13.6572 6.59775 5.58125 
31 1 12.3867 7.3253 5.37154 
33 1 11.2079 6.61622 4.86987 
42 1 14.8793 7.30869 5.23215 
52 1 10.8442 1.1986 7.3104 
60 1 10.4954 2.42053 6.59886 
61 1 10.7059 3.69097 7.32585 
63 1 11.2078 4.86969 6.61659 
87 1 10.7264 5.35087 5.35118 
98 1 16.0954 6.56214 5.53155 
170 1 10.8443 7.31113 1.19802 
174 1 10.4958 6.59886 2.42004 
175 1 10.7054 7.32565 3.69129 
179 1 8.7677 1.19797 5.23304 
183 1 9.47902 2.41983 5.58175 
184 1 8.75153 3.69082 5.37108 
192 1 13.657 5.58108 6.59835 
193 1 12.3865 5.37095 7.32582 
200 1 14.879 5.23213 7.30907 
6 1 16.0955 5.53066 9.51461 
23 1 10.7252 5.34959 10.7244 
59 1 10.546 6.5632 16.0951 
67 1 10.8449 7.31224 14.8787 
77 1 10.4954 6.599 13.6572 
78 1 10.7066 7.32005 12.3865 
80 1 11.2072 6.61359 11.2079 
93 1 16.0958 6.56132 10.546 
94 1 9.47877 2.41941 10.496 
95 1 8.75267 3.68942 10.7056 
97 1 9.46055 4.86858 11.2074 
106 1 8.76873 1.19521 10.8447 
116 1 14.8792 5.23188 8.76726 
123 1 9.51557 5.53211 16.0947 
124 1 13.6573 5.57951 9.47766 
125 1 12.3863 5.37107 8.75113 
127 1 11.208 4.86855 9.46052 
134 1 8.76757 5.23223 14.8789 
138 1 9.47938 5.58178 13.6565 
139 1 8.75185 5.37158 12.3855 
143 1 14.8805 7.30751 10.8458 
147 1 13.6601 6.59456 10.4962 
148 1 12.3864 7.31987 10.704 
156 1 10.4956 2.41984 9.47861 
157 1 10.706 3.69104 8.75096 
164 1 10.8438 1.1974 8.76847 
11 1 10.7256 10.7261 5.3491 
18 1 16.0963 10.5462 6.56154 
29 1 9.51447 16.0952 5.53225 
70 1 10.5455 16.0951 6.5629 
71 1 10.4958 9.47839 2.41884 
72 1 10.7052 8.75134 3.68975 
74 1 11.2076 9.46061 4.86909 
85 1 10.8426 8.76939 1.1963 
96 1 8.7676 14.8792 5.23251 
103 1 16.0958 9.51434 5.53084 
104 1 9.47829 13.6573 5.58008 
105 1 8.75103 12.3865 5.3713 
107 1 9.46027 11.2068 4.86844 
111 1 14.8811 10.8462 7.3078 
119 1 13.6609 10.4968 6.59396 
120 1 12.3874 10.7027 7.31869 
122 1 11.2067 11.2084 6.61542 
132 1 9.47849 10.4962 2.4168 
133 1 8.75155 10.706 3.68851 
140 1 8.76841 10.843 1.19112 
146 1 14.8797 8.76713 5.23162 
150 1 13.6578 9.47751 5.57859 
151 1 12.3869 8.75082 5.3716 
155 1 10.845 14.8791 7.31149 
159 1 10.4956 13.658 6.59687 
160 1 10.7017 12.3864 7.32615 
1 1 9.47488 10.4665 13.642 
2 1 8.75957 10.9378 12.4102 
4 1 9.42496 11.1371 11.1011 
12 1 16.0983 10.5466 9.51585 
15 1 8.76958 10.8281 14.8635 
25 1 13.6628 9.48001 10.4984 
26 1 12.3979 8.74472 10.7011 
28 1 11.2248 9.45346 11.2129 
34 1 9.511 16.0879 10.5467 
37 1 14.8832 8.76627 10.8479 
45 1 10.4936 13.6572 9.48127 
46 1 10.7035 12.3893 8.7517 
48 1 11.2228 11.2119 9.45045 
54 1 10.54 9.51621 16.0907 
57 1 10.843 14.8767 8.77015 
69 1 10.7211 10.6935 10.695 
88 1 10.5439 16.0936 9.51638 
108 1 16.0977 9.51611 10.5464 
128 1 9.50693 10.5419 16.0867 
165 1 10.4647 9.46157 13.6566 
166 1 10.7064 8.74116 12.3838 
173 1 10.839 8.76665 14.8792 
177 1 9.46952 13.6358 10.4942 
178 1 8.7573 12.3474 10.6335 
185 1 8.76774 14.8681 10.8412 
189 1 13.6645 10.4979 9.48164 
190 1 12.3985 10.6996 8.74417 
197 1 14.884 10.8482 8.76633 
201 2 8.63634 12.0365 12.6845 
ITEM: TIMESTEP
30
ITEM: NUMBER OF ATOMS
201
ITEM: BOX BOUNDS pp pp pp
0.0000000000000000e+00 1.6114000000000001e+01
0.0000000000000000e+00 1.6113000000000000e+01
0.0000000000000000e+00 1.6111999999999998e+01
ITEM: ATOMS id type x y z 
5 1 5.3857 5.38618 5.38554 
65 1 5.59236 6.61326 2.40372 
66 1 5.33503 7.32808 3.67235 
68 1 4.8538 6.60405 4.85207 
79 1 5.21641 7.31757 1.18446 
89 1 6.60823 2.40775 5.59272 
90 1 7.3273 3.67515 5.3337 
92 1 6.60349 4.85352 4.85325 
101 1 7.30909 1.18719 5.21245 
109 1 2.40597 5.59282 6.60862 
110 1 3.67346 5.33478 7.32637 
112 1 4.85261 4.85366 6.60347 
121 1 1.18683 5.21252 7.30916 
129 1 6.60747 5.59466 2.40728 
130 1 7.327 5.33408 3.6745 
137 1 7.30922 5.21343 1.18672 
141 1 2.40558 6.60785 5.59332 
142 1 3.67361 7.32497 5.33467 
149 1 1.18657 7.30872 5.21281 
153 1 5.59196 2.40538 6.60966 
154 1 5.33525 3.67416 7.32679 
161 1 5.21371 1.18509 7.31306 
7 1 6.60693 5.59578 13.6705 
8 1 7.326 5.33463 12.4035 
10 1 6.60402 4.85423 11.2236 
21 1 7.30975 5.21408 14.8883 
32 1 1.19018 7.30919 10.8628 
40 1 2.41131 6.61344 10.4828 
41 1 3.67657 7.33456 10.7443 
43 1 4.8533 6.60605 11.2241 
47 1 5.21601 1.18391 8.77108 
55 1 5.59508 2.40387 9.46853 
56 1 5.33523 3.67338 8.75292 
58 1 4.85318 4.85403 9.47368 
64 1 5.51852 6.55473 16.0937 
75 1 5.38212 5.39285 10.6945 
118 1 6.54878 5.5201 16.0926 
168 1 5.59457 6.61269 13.6693 
169 1 5.32867 7.3293 12.4041 
176 1 5.21483 7.31362 14.8889 
182 1 7.3109 1.1817 10.8608 
186 1 6.61119 2.40152 10.4838 
187 1 7.3248 3.67185 10.7421 
191 1 1.1884 5.21259 8.76846 
195 1 2.40696 5.596 9.47077 
196 1 3.67327 5.33472 8.7515 
9 1 7.30864 10.8588 1.17264 
19 1 6.61305 10.4832 2.39385 
20 1 7.32534 10.7424 3.66334 
22 1 6.60606 11.2214 4.84753 
27 1 1.18752 8.7679 5.21268 
35 1 2.40645 9.47047 5.59501 
36 1 3.6734 8.75059 5.33509 
38 1 4.85402 9.47113 4.84988 
44 1 6.54708 16.0947 5.51966 
50 1 5.59298 13.67 6.61338 
51 1 5.33438 12.4034 7.33203 
53 1 4.85253 11.224 6.60707 
62 1 5.21604 14.8872 7.31532 
76 1 5.5164 16.0926 6.55457 
81 1 5.38211 10.6942 5.39061 
167 1 5.22327 8.774 1.18186 
171 1 5.60012 9.47079 2.40158 
172 1 5.33587 8.75326 3.66778 
180 1 6.60386 13.6707 5.59581 
181 1 7.32443 12.4029 5.33537 
188 1 7.30864 14.8891 5.21236 
194 1 1.18916 10.8639 7.30956 
198 1 2.41055 10.4839 6.61314 
199 1 3.67671 10.7435 7.33554 
17 1 5.3829 10.6895 10.6933 
39 1 6.55644 16.0877 10.5556 
49 1 5.53457 9.53237 16.0907 
73 1 5.21539 8.77251 14.8903 
82 1 5.52429 16.0927 9.52796 
83 1 5.59132 9.45768 13.6694 
84 1 5.32304 8.75255 12.4061 
86 1 4.85604 9.47721 11.223 
91 1 7.30908 14.8786 10.8613 
99 1 6.61401 13.6446 10.4937 
100 1 7.31795 12.3719 10.7174 
102 1 6.63041 11.1677 11.2382 
113 1 6.57079 10.56 16.0645 
114 1 2.41167 10.4839 9.46993 
115 1 3.68124 10.7461 8.75771 
117 1 4.85881 11.2257 9.47946 
126 1 1.19201 10.8636 8.76932 
131 1 7.32556 10.8292 14.862 
135 1 6.66783 10.4144 13.6212 
136 1 7.33473 10.6528 12.374 
144 1 2.41203 9.46823 10.483 
145 1 3.67988 8.75387 10.7453 
152 1 1.1923 8.7687 10.8621 
158 1 5.22225 14.8865 8.77132 
162 1 5.60085 13.6672 9.46995 
163 1 5.33826 12.4014 8.75304 
3 1 8.77022 5.21433 1.18699 
13 1 9.46958 5.59521 2.407 
14 1 8.75147 5.33456 3.67372 
16 1 9.47415 4.85317 4.85288 
24 1 16.0958 5.51764 6.54954 
30 1 13.6707 6.60823 5.59315 
31 1 12.4028 7.3251 5.33507 
33 1 11.2232 6.60391 4.85184 
42 1 14.8905 7.30781 5.21261 
52 1 10.8621 1.18516 7.31224 
60 1 10.4847 2.40527 6.61105 
61 1 10.7432 3.67373 7.32658 
63 1 11.2237 4.85355 6.60313 
87 1 10.69 5.38627 5.38642 
98 1 16.0957 6.5492 5.51771 
170 1 10.8608 7.31511 1.18579 
174 1 10.4835 6.61204 2.4044 
175 1 10.7422 7.32708 3.67253 
179 1 8.76973 1.18671 5.21324 
183 1 9.46911 2.40778 5.59385 
184 1 8.75056 3.67484 5.33445 
192 1 13.6699 5.59282 6.60893 
193 1 12.4029 5.33383 7.32641 
200 1 14.8903 5.21237 7.30795 
6 1 16.0961 5.51707 9.52689 
23 1 10.6922 5.39174 10.6915 
59 1 10.5591 6.55285 16.0947 
67 1 10.8634 7.30867 14.8892 
77 1 10.4799 6.61093 13.6712 
78 1 10.7559 7.31751 12.4036 
80 1 11.2274 6.5964 11.2193 
93 1 16.0972 6.5505 10.5605 
94 1 9.46592 2.4002 10.4844 
95 1 8.7529 3.67062 10.7432 
97 1 9.47452 4.85187 11.2242 
106 1 8.76647 1.17993 10.8613 
116 1 14.8901 5.21146 8.76734 
123 1 9.52866 5.5213 16.0936 
124 1 13.6708 5.59194 9.4685 
125 1 12.4032 5.33201 8.75122 
127 1 11.2237 4.85333 9.47441 
134 1 8.76832 5.21453 14.8898 
138 1 9.46959 5.5967 13.6713 
139 1 8.75268 5.33403 12.4035 
143 1 14.8905 7.30725 10.8648 
147 1 13.6718 6.60595 10.4839 
148 1 12.4071 7.32162 10.7445 
156 1 10.4817 2.40485 9.46865 
157 1 10.744 3.67284 8.75228 
164 1 10.8605 1.18512 8.76958 
11 1 10.6928 10.6934 5.3888 
18 1 16.0971 10.5601 6.54959 
29 1 9.52953 16.0946 5.52068 
70 1 10.5591 16.0938 6.55418 
71 1 10.4786 9.46905 2.40075 
72 1 10.7424 8.75276 3.6679 
74 1 11.2231 9.47175 4.85015 
85 1 10.8571 8.77094 1.18173 
96 1 8.76981 14.8901 5.21255 
103 1 16.0958 9.52708 5.51705 
104 1 9.4718 13.6717 5.59466 
105 1 8.75354 12.4039 5.33437 
107 1 9.47102 11.2223 4.84731 
111 1 14.8918 10.8657 7.30775 
119 1 13.6747 10.4852 6.60322 
120 1 12.408 10.7438 7.3189 
122 1 11.2246 11.2233 6.60266 
132 1 9.46559 10.4817 2.39677 
133 1 8.75142 10.7426 3.66467 
140 1 8.76327 10.8573 1.17801 
146 1 14.8912 8.76644 5.21106 
150 1 13.6725 9.46839 5.59013 
151 1 12.404 8.75128 5.33306 
155 1 10.861 14.8894 7.31249 
159 1 10.4812 13.6723 6.61139 
160 1 10.7423 12.4039 7.32265 
1 1 9.47238 10.4577 13.6481 
2 1 8.76977 11.1131 12.4889 
4 1 9.46374 11.1967 11.1896 
12 1 16.1004 10.5593 9.52724 
15 1 8.77326 10.8236 14.8707 
25 1 13.6777 9.466 10.4818 
26 1 12.4227 8.73593 10.7543 
28 1 11.2331 9.45892 11.2172 
34 1 9.52487 16.0878 10.5593 
37 1 14.8954 8.76656 10.8654 
45 1 10.4909 13.6646 9.46203 
46 1 10.7559 12.397 8.74458 
48 1 11.2241 11.2014 9.45355 
54 1 10.5504 9.5224 16.0851 
57 1 10.8629 14.8913 8.76814 
69 1 10.6397 10.6136 10.6258 
88 1 10.553 16.0944 9.52775 
108 1 16.1002 9.52641 10.5593 
128 1 9.51526 10.541 16.0908 
165 1 10.4132 9.42337 13.6618 
166 1 10.7544 8.7314 12.3923 
173 1 10.8364 8.75823 14.8873 
177 1 9.4476 13.6436 10.4585 
178 1 8.74217 12.352 10.6367 
185 1 8.77071 14.8753 10.8662 
189 1 13.6804 10.4802 9.46888 
190 1 12.4205 10.7487 8.74073 
197 1 14.8966 10.8661 8.76642 
201 2 8.55619 12.2025 12.8154 
ITEM: TIMESTEP
40
ITEM: NUMBER OF ATOMS
201
ITEM: BOX BOUNDS pp pp pp
0.0000000000000000e+00 1.6114000000000001e+01
0.0000000000000000e+00 1.6113000000000000e+01
0.0000000000000000e+00 1.6111999999999998e+01
ITEM: ATOMS id type x y z 
5 1 5.37704 5.37794 5.37765 
65 1 5.59481 6.61263 2.40292 
66 1 5.32627 7.32921 3.66851 
68 1 4.85769 6.60911 4.85462 
79 1 5.21728 7.31535 1.18378 
89 1 6.60851 2.40562 5.59438 
90 1 7.32636 3.66987 5.32563 
92 1 6.60815 4.85731 4.85654 
101 1 7.30866 1.1857 5.21465 
109 1 2.40561 5.59284 6.60942 
110 1 3.67056 5.3255 7.32738 
112 1 4.85719 4.85656 6.60817 
121 1 1.18544 5.21278 7.30999 
129 1 6.60881 5.59582 2.40477 
130 1 7.32638 5.32621 3.66889 
137 1 7.30955 5.21568 1.18534 
141 1 2.40527 6.60832 5.59335 
142 1 3.67058 7.32641 5.32611 
149 1 1.18553 7.30949 5.21304 
153 1 5.59411 2.40568 6.60987 
154 1 5.32606 3.67025 7.32818 
161 1 5.21399 1.18579 7.31027 
7 1 6.61042 5.59558 13.6694 
8 1 7.32721 5.32491 12.4056 
10 1 6.60646 4.85742 11.2197 
21 1 7.30949 5.21545 14.89 
32 1 1.18802 7.30899 10.8626 
40 1 2.40937 6.61209 10.4818 
41 1 3.67364 7.3287 10.7533 
43 1 4.85899 6.60694 11.2182 
47 1 5.21548 1.18387 8.77064 
55 1 5.59541 2.40646 9.46906 
56 1 5.32594 3.67199 8.75235 
58 1 4.8578 4.85823 9.47204 
64 1 5.51577 6.54892 16.0927 
75 1 5.3799 5.37727 10.6997 
118 1 6.54725 5.51487 16.0941 
168 1 5.59537 6.61126 13.6722 
169 1 5.31742 7.32352 12.407 
176 1 5.21432 7.31085 14.8907 
182 1 7.30979 1.18032 10.8618 
186 1 6.61228 2.40426 10.4843 
187 1 7.32619 3.67093 10.753 
191 1 1.18705 5.21388 8.76912 
195 1 2.40697 5.59558 9.46859 
196 1 3.67162 5.32582 8.75178 
9 1 7.30972 10.8621 1.16901 
19 1 6.61519 10.4866 2.39261 
20 1 7.32614 10.7537 3.66192 
22 1 6.60815 11.2185 4.85059 
27 1 1.18717 8.76891 5.2139 
35 1 2.40691 9.46901 5.59565 
36 1 3.67132 8.75129 5.3258 
38 1 4.85771 9.47051 4.85488 
44 1 6.54605 16.095 5.51441 
50 1 5.59433 13.6699 6.61061 
51 1 5.32557 12.4048 7.32836 
53 1 4.85889 11.218 6.60869 
62 1 5.21544 14.89 7.31263 
76 1 5.51389 16.0937 6.54795 
81 1 5.37966 10.6997 5.37539 
167 1 5.22386 8.77485 1.17813 
171 1 5.60002 9.47108 2.40231 
172 1 5.32697 8.75428 3.66629 
180 1 6.60908 13.6698 5.59334 
181 1 7.32579 12.4044 5.32504 
188 1 7.30764 14.8907 5.21407 
194 1 1.18791 10.8634 7.30957 
198 1 2.40914 10.4822 6.61256 
199 1 3.67269 10.7521 7.3312 
17 1 5.38606 10.6947 10.7046 
39 1 6.55522 16.0818 10.5651 
49 1 5.52646 9.53692 16.0878 
73 1 5.21225 8.77061 14.8919 
82 1 5.5194 16.0923 9.53379 
83 1 5.59663 9.45581 13.6687 
84 1 5.31266 8.74781 12.4053 
86 1 4.85699 9.47441 11.2181 
91 1 7.31049 14.871 10.8633 
99 1 6.61658 13.6423 10.4955 
100 1 7.32438 12.3665 10.7154 
102 1 6.64511 11.1655 11.2305 
113 1 6.56385 10.5626 16.0676 
114 1 2.40895 10.4853 9.47013 
115 1 3.6758 10.7544 8.75659 
117 1 4.86223 11.2203 9.4795 
126 1 1.18994 10.8641 8.76776 
131 1 7.33013 10.8158 14.8633 
135 1 6.67036 10.4092 13.6222 
136 1 7.35254 10.6826 12.3752 
144 1 2.40772 9.46963 10.4831 
145 1 3.67215 8.75239 10.7514 
152 1 1.18953 8.76721 10.8631 
158 1 5.22104 14.8854 8.77316 
162 1 5.60379 13.6662 9.47494 
163 1 5.33082 12.4047 8.75406 
3 1 8.76777 5.21604 1.18583 
13 1 9.46915 5.59642 2.40479 
14 1 8.75155 5.32602 3.66982 
16 1 9.46977 4.85752 4.85668 
24 1 16.0959 5.51251 6.54599 
30 1 13.6708 6.60833 5.59396 
31 1 12.4054 7.32618 5.32566 
33 1 11.2187 6.6086 4.85531 
42 1 14.8915 7.30757 5.21264 
52 1 10.863 1.18607 7.31113 
60 1 10.483 2.40655 6.61015 
61 1 10.7531 3.67129 7.32753 
63 1 11.219 4.85777 6.60718 
87 1 10.6998 5.37871 5.37812 
98 1 16.0959 6.54514 5.51291 
170 1 10.8606 7.31348 1.1842 
174 1 10.4816 6.6125 2.40402 
175 1 10.7516 7.32896 3.6687 
179 1 8.76733 1.18633 5.2144 
183 1 9.46839 2.40604 5.59456 
184 1 8.75106 3.67096 5.32577 
192 1 13.6704 5.59335 6.60942 
193 1 12.4057 5.32397 7.32682 
200 1 14.8914 5.21262 7.30833 
6 1 16.0963 5.51264 9.53105 
23 1 10.6971 5.37505 10.698 
59 1 10.5635 6.54576 16.0969 
67 1 10.8612 7.30932 14.8916 
77 1 10.481 6.60695 13.6716 
78 1 10.7675 7.31717 12.4063 
80 1 11.2252 6.59976 11.2154 
93 1 16.099 6.54477 10.5637 
94 1 9.46518 2.40271 10.4848 
95 1 8.74969 3.66923 10.7534 
97 1 9.46935 4.85489 11.2208 
106 1 8.76992 1.17762 10.8631 
116 1 14.8929 5.21199 8.76729 
123 1 9.5316 5.51589 16.0945 
124 1 13.6719 5.59029 9.4669 
125 1 12.4058 5.32309 8.75058 
127 1 11.2196 4.85706 9.46982 
134 1 8.76761 5.216 14.8918 
138 1 9.46615 5.59583 13.6712 
139 1 8.75039 5.32437 12.4053 
143 1 14.8945 7.30672 10.865 
147 1 13.6764 6.60432 10.4831 
148 1 12.4115 7.3228 10.7553 
156 1 10.4812 2.40605 9.46917 
157 1 10.7527 3.67071 8.75128 
164 1 10.8604 1.18405 8.77119 
11 1 10.6968 10.6983 5.37369 
18 1 16.0992 10.564 6.54486 
29 1 9.53077 16.0953 5.51348 
70 1 10.5633 16.0948 6.54747 
71 1 10.479 9.46763 2.39875 
72 1 10.7513 8.75277 3.66456 
74 1 11.2193 9.46916 4.85275 
85 1 10.8582 8.76903 1.18058 
96 1 8.76707 14.8916 5.21281 
103 1 16.0966 9.53114 5.51258 
104 1 9.46786 13.6705 5.59243 
105 1 8.74998 12.4051 5.3248 
107 1 9.46789 11.2192 4.85073 
111 1 14.8949 10.8658 7.30698 
119 1 13.6756 10.4857 6.60357 
120 1 12.4121 10.7561 7.32332 
122 1 11.2214 11.2183 6.60588 
132 1 9.4651 10.4806 2.39741 
133 1 8.75008 10.752 3.66191 
140 1 8.76557 10.8556 1.17695 
146 1 14.8932 8.76701 5.21139 
150 1 13.6722 9.46759 5.58909 
151 1 12.4062 8.75071 5.32363 
155 1 10.8626 14.8908 7.3124 
159 1 10.4821 13.6707 6.61098 
160 1 10.7549 12.4052 7.32717 
1 1 9.4718 10.4759 13.6432 
2 1 8.78229 11.1469 12.501 
4 1 9.46694 11.2044 11.1956 
12 1 16.1004 10.5644 9.5315 
15 1 8.77899 10.8322 14.8743 
25 1 13.6771 9.46616 10.4834 
26 1 12.4169 8.74622 10.7616 
28 1 11.2127 9.45351 11.204 
34 1 9.52631 16.0808 10.5675 
37 1 14.8979 8.76621 10.8646 
45 1 10.4867 13.6593 9.46263 
46 1 10.7663 12.392 8.75141 