LAMMPS (3 Mar 2020)
Reading data file ...
  orthogonal box = (0 0 0) to (16.114 16.113 16.112)
  2 by 2 by 2 MPI processor grid
  reading atoms ...
  201 atoms
  read_data CPU = 0.0105336 secs
WARNING: Changed valency_val to valency_boc for X (../reaxc_ffield.cpp:315)
WARNING: Using 'neigh_modify every 1 delay 0 check yes' setting during minimization (../min.cpp:190)
Neighbor list info ...
  update every 1 steps, delay 0 steps, check yes
  max neighbors/atom: 2000, page size: 100000
  master list distance cutoff = 12
  ghost atom cutoff = 12
  binsize = 6, bins = 3 3 3
  2 neighbor lists, perpetual/occasional/extra = 2 0 0
  (1) pair reax/c, perpetual
      attributes: half, newton off, ghost
      pair build: half/bin/newtoff/ghost
      stencil: half/ghost/bin/3d/newtoff
      bin: standard
  (2) fix qeq/reax, perpetual, copy from (1)
      attributes: half, newton off, ghost
      pair build: copy
      stencil: none
      bin: none
Setting up cg style minimization ...
  Unit style    : real
  Current step  : 0
Per MPI rank memory allocation (min/avg/max) = 36.97 | 36.98 | 37 Mbytes
Step Temp E_pair E_mol TotEng Press 
       0            0   -37587.869            0   -37587.869    673176.54 
     101            0   -38651.383            0   -38651.383    62391.545 
Loop time of 9.18584 on 8 procs for 101 steps with 201 atoms

99.1% CPU use with 8 MPI tasks x no OpenMP threads

Minimization stats:
  Stopping criterion = energy tolerance
  Energy initial, next-to-last, final = 
        -37587.8694341     -38651.3834171     -38651.3834223
  Force two-norm initial, final = 1499.13 32.779
  Force max component initial, final = 215.649 11.3147
  Final line search alpha, max atom move = 0.00434222 0.0491311
  Iterations, force evaluations = 101 481

MPI task timing breakdown:
Section |  min time  |  avg time  |  max time  |%varavg| %total
---------------------------------------------------------------
Pair    | 6.3375     | 6.6408     | 8.3959     |  25.8 | 72.29
Neigh   | 0          | 0          | 0          |   0.0 |  0.00
Comm    | 0.031305   | 1.7864     | 2.0897     |  49.7 | 19.45
Output  | 0.00044983 | 0.00054663 | 0.00084675 |   0.0 |  0.01
Modify  | 0.75018    | 0.75034    | 0.75055    |   0.0 |  8.17
Other   |            | 0.007704   |            |       |  0.08

Nlocal:    25.125 ave 29 max 22 min
Histogram: 1 0 3 0 0 3 0 0 0 1
Nghost:    1582.88 ave 1586 max 1579 min
Histogram: 1 0 0 0 3 0 0 3 0 1
Neighs:    8343.5 ave 9578 max 7331 min
Histogram: 1 0 3 0 0 3 0 0 0 1

Total # of neighbors = 66748
Ave neighs/atom = 332.08
Neighbor list builds = 0
Dangerous builds = 0
WARNING: Using 'neigh_modify every 1 delay 0 check yes' setting during minimization (../min.cpp:190)
Setting up cg style minimization ...
  Unit style    : real
  Current step  : 101
Per MPI rank memory allocation (min/avg/max) = 36.97 | 36.98 | 37 Mbytes
Step Temp E_pair E_mol TotEng Press 
     101            0   -38651.383            0   -38651.383    62391.545 
     115            0   -38651.814            0   -38651.814     61523.71 
Loop time of 1.60893 on 8 procs for 14 steps with 201 atoms

99.1% CPU use with 8 MPI tasks x no OpenMP threads

Minimization stats:
  Stopping criterion = energy tolerance
  Energy initial, next-to-last, final = 
        -38651.3834223     -38651.8139909     -38651.8141006
  Force two-norm initial, final = 32.779 43.638
  Force max component initial, final = 11.3147 18.0668
  Final line search alpha, max atom move = 0.00426182 0.0769974
  Iterations, force evaluations = 14 84

MPI task timing breakdown:
Section |  min time  |  avg time  |  max time  |%varavg| %total
---------------------------------------------------------------
Pair    | 1.114      | 1.1675     | 1.4718     |  10.7 | 72.56
Neigh   | 0          | 0          | 0          |   0.0 |  0.00
Comm    | 0.005719   | 0.31       | 0.36344    |  20.7 | 19.27
Output  | 4.263e-05  | 5.3128e-05 | 8.6131e-05 |   0.0 |  0.00
Modify  | 0.13       | 0.13005    | 0.13011    |   0.0 |  8.08
Other   |            | 0.001339   |            |       |  0.08

Nlocal:    25.125 ave 29 max 22 min
Histogram: 1 0 3 0 0 3 0 0 0 1
Nghost:    1582.88 ave 1586 max 1579 min
Histogram: 1 0 0 0 3 0 0 3 0 1
Neighs:    8363.5 ave 9603 max 7345 min
Histogram: 1 0 3 0 0 3 0 0 0 1

Total # of neighbors = 66908
Ave neighs/atom = 332.876
Neighbor list builds = 0
Dangerous builds = 0
WARNING: Using 'neigh_modify every 1 delay 0 check yes' setting during minimization (../min.cpp:190)
Setting up cg style minimization ...
  Unit style    : real
  Current step  : 115
WARNING: Energy due to 3 extra global DOFs will be included in minimizer energies
Per MPI rank memory allocation (min/avg/max) = 36.97 | 36.98 | 36.99 Mbytes
Step Temp E_pair E_mol TotEng Press Volume 
     115            0   -38651.814            0   -38651.814    61523.711    4183.3983 
    3021            0   -38825.523            0   -38825.523    132.84722    4499.4065 
Loop time of 62.9577 on 8 procs for 2906 steps with 201 atoms

99.2% CPU use with 8 MPI tasks x no OpenMP threads

Minimization stats:
  Stopping criterion = energy tolerance
  Energy initial, next-to-last, final = 
        -38651.8141003     -38825.5223421     -38825.5226493
  Force two-norm initial, final = 6501.87 17.3439
  Force max component initial, final = 3804.11 9.65943
  Final line search alpha, max atom move = 1.58053e-05 0.00015267
  Iterations, force evaluations = 2906 3503

MPI task timing breakdown:
Section |  min time  |  avg time  |  max time  |%varavg| %total
---------------------------------------------------------------
Pair    | 45.087     | 47.292     | 59.977     |  69.8 | 75.12
Neigh   | 0          | 0          | 0          |   0.0 |  0.00
Comm    | 0.20168    | 12.888     | 15.092     | 133.8 | 20.47
Output  | 0.010929   | 0.013228   | 0.02052    |   2.5 |  0.02
Modify  | 2.6014     | 2.603      | 2.6049     |   0.1 |  4.13
Other   |            | 0.162      |            |       |  0.26

Nlocal:    25.125 ave 28 max 22 min
Histogram: 1 0 0 3 0 0 2 0 1 1
Nghost:    1582.88 ave 1586 max 1580 min
Histogram: 1 1 0 2 0 0 3 0 0 1
Neighs:    8361.25 ave 9278 max 7344 min
Histogram: 1 0 0 3 0 0 2 0 1 1

Total # of neighbors = 66890
Ave neighs/atom = 332.786
Neighbor list builds = 0
Dangerous builds = 0
WARNING: Using 'neigh_modify every 1 delay 0 check yes' setting during minimization (../min.cpp:190)
Setting up cg style minimization ...
  Unit style    : real
  Current step  : 3021
Per MPI rank memory allocation (min/avg/max) = 36.96 | 36.97 | 36.99 Mbytes
Step Temp E_pair E_mol TotEng Press 
    3021            0   -38825.523            0   -38825.523    132.84573 
    3042            0   -38825.855            0   -38825.855    4045.6851 
Loop time of 1.32963 on 8 procs for 21 steps with 201 atoms

99.2% CPU use with 8 MPI tasks x no OpenMP threads

Minimization stats:
  Stopping criterion = energy tolerance
  Energy initial, next-to-last, final = 
        -38825.5226501     -38825.8545342     -38825.8548882
  Force two-norm initial, final = 8.99936 2.46805
  Force max component initial, final = 1.4679 0.773938
  Final line search alpha, max atom move = 0.00122889 0.000951087
  Iterations, force evaluations = 21 75

MPI task timing breakdown:
Section |  min time  |  avg time  |  max time  |%varavg| %total
---------------------------------------------------------------
Pair    | 0.90931    | 0.95443    | 1.2079     |   9.8 | 71.78
Neigh   | 0          | 0          | 0          |   0.0 |  0.00
Comm    | 0.0048851  | 0.25833    | 0.30348    |  18.9 | 19.43
Output  | 8.0661e-05 | 0.00010281 | 0.00016242 |   0.0 |  0.01
Modify  | 0.11539    | 0.11547    | 0.11552    |   0.0 |  8.68
Other   |            | 0.001305   |            |       |  0.10

Nlocal:    25.125 ave 29 max 22 min
Histogram: 1 0 3 0 0 3 0 0 0 1
Nghost:    1486.88 ave 1492 max 1482 min
Histogram: 1 1 1 0 1 0 1 0 2 1
Neighs:    7809.5 ave 8924 max 6896 min
Histogram: 1 0 3 0 0 3 0 0 0 1

Total # of neighbors = 62476
Ave neighs/atom = 310.826
Neighbor list builds = 0
Dangerous builds = 0
WARNING: Using 'neigh_modify every 1 delay 0 check yes' setting during minimization (../min.cpp:190)
Setting up cg style minimization ...
  Unit style    : real
  Current step  : 3042
WARNING: Energy due to 3 extra global DOFs will be included in minimizer energies
Per MPI rank memory allocation (min/avg/max) = 36.96 | 36.97 | 36.99 Mbytes
Step Temp E_pair E_mol TotEng Press Volume 
    3042            0   -38825.855            0   -38825.855    4045.6842    4499.4065 
    3061            0   -38826.036            0   -38826.036   -104.78451    4504.4329 
Loop time of 0.516642 on 8 procs for 19 steps with 201 atoms

99.0% CPU use with 8 MPI tasks x no OpenMP threads

Minimization stats:
  Stopping criterion = energy tolerance
  Energy initial, next-to-last, final = 
        -38825.8548886     -38826.0357145     -38826.0360665
  Force two-norm initial, final = 459.893 17.8109
  Force max component initial, final = 271.892 14.4616
  Final line search alpha, max atom move = 9.32093e-06 0.000134795
  Iterations, force evaluations = 19 30

MPI task timing breakdown:
Section |  min time  |  avg time  |  max time  |%varavg| %total
---------------------------------------------------------------
Pair    | 0.3705     | 0.38872    | 0.4902     |   6.2 | 75.24
Neigh   | 0          | 0          | 0          |   0.0 |  0.00
Comm    | 0.0020192  | 0.10352    | 0.12176    |  12.0 | 20.04
Output  | 7.9317e-05 | 9.4862e-05 | 0.00014569 |   0.0 |  0.02
Modify  | 0.022913   | 0.022941   | 0.022959   |   0.0 |  4.44
Other   |            | 0.001364   |            |       |  0.26

Nlocal:    25.125 ave 29 max 22 min
Histogram: 1 0 3 0 0 3 0 0 0 1
Nghost:    1486.88 ave 1492 max 1482 min
Histogram: 1 1 1 0 1 0 1 0 2 1
Neighs:    7810 ave 8927 max 6893 min
Histogram: 1 0 3 0 0 3 0 0 0 1

Total # of neighbors = 62480
Ave neighs/atom = 310.846
Neighbor list builds = 0
Dangerous builds = 0
WARNING: Using 'neigh_modify every 1 delay 0 check yes' setting during minimization (../min.cpp:190)
Setting up cg style minimization ...
  Unit style    : real
  Current step  : 3061
Per MPI rank memory allocation (min/avg/max) = 36.96 | 36.97 | 36.99 Mbytes
Step Temp E_pair E_mol TotEng Press 
    3061            0   -38826.036            0   -38826.036   -104.78484 
    3076            0   -38826.138            0   -38826.138    3813.6597 
Loop time of 1.28877 on 8 procs for 15 steps with 201 atoms

99.1% CPU use with 8 MPI tasks x no OpenMP threads

Minimization stats:
  Stopping criterion = energy tolerance
  Energy initial, next-to-last, final = 
        -38826.0360666     -38826.1378707     -38826.1379017
  Force two-norm initial, final = 7.69234 7.48645
  Force max component initial, final = 1.17943 2.11981
  Final line search alpha, max atom move = 0.0469939 0.0996181
  Iterations, force evaluations = 15 73

MPI task timing breakdown:
Section |  min time  |  avg time  |  max time  |%varavg| %total
---------------------------------------------------------------
Pair    | 0.88579    | 0.93009    | 1.1785     |   9.8 | 72.17
Neigh   | 0          | 0          | 0          |   0.0 |  0.00
Comm    | 0.0047231  | 0.25317    | 0.29751    |  18.7 | 19.64
Output  | 4.1197e-05 | 5.0526e-05 | 8.1482e-05 |   0.0 |  0.00
Modify  | 0.10422    | 0.10428    | 0.10435    |   0.0 |  8.09
Other   |            | 0.001175   |            |       |  0.09

Nlocal:    25.125 ave 29 max 22 min
Histogram: 1 0 3 0 0 3 0 0 0 1
Nghost:    1486.88 ave 1492 max 1482 min
Histogram: 1 1 1 0 1 0 1 0 2 1
Neighs:    7804.25 ave 8921 max 6890 min
Histogram: 1 0 3 0 0 3 0 0 0 1

Total # of neighbors = 62434
Ave neighs/atom = 310.617
Neighbor list builds = 0
Dangerous builds = 0
Setting up Verlet run ...
  Unit style    : real
  Current step  : 0
  Time step     : 0.25
Per MPI rank memory allocation (min/avg/max) = 35.83 | 35.85 | 35.86 Mbytes
Step Temp TotEng KinEng PotEng Press 
       0          300   -38647.289     178.8486   -38826.138    5628.6673 
     200    199.39841   -38590.012    118.87376   -38708.885    6164.0213 
     400    292.75271   -38498.372    174.52804     -38672.9   -6218.7198 
     600     328.3024   -38439.665    195.72142   -38635.387   -5720.7153 
     800    298.54522   -38460.778    177.98132   -38638.759   -15394.176 
    1000    294.28102    -38491.24    175.43916   -38666.679   -3312.2833 
    1200    289.88905    -38459.31    172.82084   -38632.131    -3103.336 
    1400    314.20911   -38463.235    187.31954   -38650.555   -8574.0824 
    1600    317.12632   -38475.695    189.05866   -38664.753   -8108.9232 
    1800    298.30378   -38479.656    177.83738   -38657.494   -388.69686 
    2000    334.89681   -38448.702    199.65276   -38648.355   -444.79583 
    2200    279.92621   -38473.203    166.88137   -38640.085    12545.163 
    2400    311.62459   -38466.823    185.77874   -38652.602    859.82732 
    2600    308.51097   -38449.161    183.92252   -38633.083    2874.9025 
    2800    308.03759   -38467.852    183.64031   -38651.493    880.39658 
    3000    330.20932   -38477.777    196.85825   -38674.636    254.28867 
    3200    303.00906   -38464.215    180.64249   -38644.857   -8316.6093 
    3400    290.43422   -38471.238    173.14585   -38644.384   -2744.4902 
    3600    306.63223   -38479.647    182.80249    -38662.45    4194.0087 
    3800     286.0845   -38456.506    170.55271   -38627.059    1205.7313 
    4000    315.85379   -38454.771    188.30003   -38643.071   -10845.366 
    4200    301.17446   -38481.132    179.54877   -38660.681   -14625.658 
    4400    305.32797   -38450.933    182.02493   -38632.958    -4799.736 
    4600    307.99676   -38468.028    183.61597   -38651.644   -2811.9867 
    4800    312.31677   -38473.561    186.19139   -38659.752    6741.5063 
    5000    275.70912   -38479.354     164.3673   -38643.721    11317.576 
    5200    331.79346   -38449.249    197.80266   -38647.052    11807.234 
    5400    286.13329   -38478.226     170.5818   -38648.807    7537.0708 
    5600    308.62879   -38473.909    183.99276   -38657.901    2832.7239 
    5800    288.38131   -38468.992    171.92198   -38640.914   -357.65146 
    6000    330.07757   -38446.079    196.77971   -38642.859    1388.5833 
    6200    277.78313   -38479.004    165.60375   -38644.608    5435.1202 
    6400     303.9555   -38465.796    181.20672   -38647.003    7198.0109 
    6600     330.1645   -38441.021    196.83153   -38637.853    14145.839 
    6800    314.91778   -38464.016    187.74202   -38651.758    12428.486 
    7000    289.48078   -38479.223    172.57745     -38651.8   -806.59411 
    7200    292.80317   -38451.038    174.55813   -38625.596   -8046.9563 
    7400    283.00611   -38466.523    168.71749   -38635.241   -8716.7341 
    7600    309.53993   -38471.345    184.53595   -38655.881   -7900.4277 
    7800    305.10955   -38475.415    181.89472    -38657.31    1161.6047 
    8000    295.75578   -38456.782    176.31836   -38633.101   -6942.1829 
    8200    274.03847   -38478.772    163.37132   -38642.143    2014.3349 
    8400    294.58191   -38488.073    175.61855   -38663.692    10495.763 
    8600    334.07873   -38451.723    199.16504   -38650.888    13011.256 
    8800    307.07514   -38479.521    183.06653   -38662.588    8174.2872 
    9000    275.02287   -38485.538    163.95819   -38649.496    401.21052 
    9200    299.91962   -38468.303    178.80068   -38647.104   -212.27458 
    9400    313.14586   -38462.339    186.68566   -38649.025    -2757.755 
    9600    278.06658   -38497.645    165.77273   -38663.417    598.96095 
    9800    295.46097   -38466.392    176.14261   -38642.534   -5364.9955 
   10000    296.06977    -38458.31    176.50555   -38634.816   -2489.3345 
   10200    284.04124   -38488.812     169.3346   -38658.147   -2641.4508 
   10400    308.49856   -38478.309    183.91512   -38662.224    10043.043 
   10600    293.95085   -38468.557    175.24233   -38643.799    4910.9768 
   10800    319.57887   -38444.864    190.52078   -38635.384    14630.512 
   11000    288.81387   -38465.504    172.17986   -38637.684   -2749.1676 
   11200    280.45662   -38475.967    167.19758   -38643.164     1443.788 
   11400    303.27989   -38448.176    180.80395    -38628.98    2310.4426 
   11600    303.00897     -38450.9    180.64244   -38631.542   -1315.1308 
   11800     310.3559    -38474.24    185.02239   -38659.263    8762.9926 
   12000     322.5615    -38453.26    192.29891   -38645.559    6210.4446 
   12200    319.71392   -38463.839    190.60129    -38654.44     8855.137 
   12400    294.17199   -38476.957    175.37416   -38652.332    4772.4988 
   12600    321.78954   -38463.794     191.8387   -38655.633    7925.3695 
   12800    296.67983   -38454.171    176.86924   -38631.041   -107.37505 
   13000    262.09647   -38486.464    156.25196   -38642.716    2925.4023 
   13200    310.61404   -38462.897    185.17629   -38648.074   -1299.5153 
   13400    292.70191   -38477.834    174.49776   -38652.332    675.05537 
   13600    337.75083   -38432.472    201.35421   -38633.826    1789.4389 
   13800    305.61742   -38460.277     182.1975   -38642.474   -6194.3806 
   14000    285.65871   -38481.181    170.29887    -38651.48   -3104.1271 
   14200    310.85623   -38453.011    185.32068   -38638.332   -14146.257 
   14400    314.72072   -38460.746    187.62454   -38648.371   -14118.564 
   14600    293.09745   -38484.942    174.73357   -38659.675   -8052.5397 
   14800    314.61074   -38450.952    187.55897   -38638.511    555.06321 
   15000    304.55927   -38464.781    181.56666   -38646.348    9683.0522 
   15200    275.77957    -38506.22     164.4093    -38670.63    -2290.798 
   15400    280.76911   -38469.634    167.38387   -38637.018    3813.6706 
   15600    318.72469   -38448.865    190.01155   -38638.877    1546.3796 
   15800    286.45386   -38481.448    170.77291   -38652.221    16306.638 
   16000    318.55534   -38471.805    189.91059   -38661.715    4170.5561 
   16200    344.47969   -38429.485    205.36571   -38634.851    -2703.518 
   16400    297.45175   -38462.175    177.32943   -38639.505   -4715.3126 
   16600    289.60816   -38480.801    172.65338   -38653.454   -6697.5688 
   16800    318.95051   -38451.666    190.14617   -38641.812    5333.7443 
   17000    287.67898   -38464.851    171.50328   -38636.354    6756.8795 
   17200    288.19348   -38474.902    171.81001   -38646.712    -3094.582 
   17400    324.56784   -38458.726    193.49502   -38652.221   -8129.3786 
   17600    290.20034   -38492.607    173.00642   -38665.613   -4211.9356 
   17800    325.02571    -38466.05    193.76798   -38659.818       946.94 
   18000    294.34912   -38464.536    175.47976   -38640.016    699.64608 
   18200    282.77779   -38482.291    168.58138   -38650.873   -5720.4044 
   18400     332.6681   -38430.302    198.32409   -38628.626   -10398.265 
   18600    314.30571   -38455.589    187.37712   -38642.966   -15857.384 
   18800     293.8466   -38473.835    175.18018   -38649.015    772.60401 
   19000     302.0096   -38467.845    180.04665   -38647.891   -6202.2483 
   19200    296.40527   -38461.166    176.70556   -38637.872    2949.6195 
   19400    290.35727   -38483.151    173.09998   -38656.251    6039.3119 
   19600    310.62931    -38468.67    185.18539   -38653.855    14497.715 
   19800    306.53495   -38453.719    182.74449   -38636.463    4312.9239 
   20000    301.69274   -38480.299    179.85775   -38660.156   -1401.5899 
   20200    296.70863    -38474.63    176.88641   -38651.517   -10706.099 
   20400    341.60564   -38447.503     203.6523   -38651.156   -11568.794 
   20600    290.39179   -38469.868    173.12055   -38642.989    3700.9649 
   20800    281.52079   -38493.236      167.832   -38661.068    3656.3133 
   21000     290.9566   -38474.618    173.45727   -38648.075    250.51151 
   21200    291.09154   -38466.875    173.53772   -38640.412    -214.4844 
   21400    289.95191   -38470.287    172.85831   -38643.145    761.94775 
   21600    288.05545   -38471.953    171.72772   -38643.681   -1468.4499 
   21800    282.64001   -38467.951    168.49924    -38636.45   -3088.7566 
   22000    284.74026    -38465.68    169.75133   -38635.431   -2048.1054 
   22200    293.94825   -38494.033    175.24078   -38669.274   -6417.5713 
   22400     281.9365   -38479.615    168.07983   -38647.695   -2023.5928 
   22600    307.04923    -38456.98    183.05109   -38640.031   -8650.9994 
   22800    292.88862   -38487.799    174.60907   -38662.409   -5223.4316 
   23000     289.9689    -38480.88    172.86844   -38653.749   -7348.2653 
   23200      300.543   -38467.306    179.17232   -38646.478    619.25263 
   23400     329.0181   -38446.939    196.14809   -38643.087   -1781.9415 
   23600    313.96428   -38468.482    187.17357   -38655.656   -5425.1294 
   23800      293.598   -38474.888    175.03197    -38649.92    5651.7704 
   24000    300.36197    -38447.94     179.0644   -38627.005    14692.575 
   24200    324.37051   -38446.846    193.37737   -38640.223    5839.3366 
   24400    255.10659   -38482.524    152.08486   -38634.609   -287.71724 
   24600    321.53414   -38460.427    191.68644   -38652.113    1143.0426 
   24800    293.55463   -38476.761    175.00612   -38651.767    5247.2534 
   25000    309.91547   -38478.378    184.75983   -38663.138    4829.2182 
   25200    326.92654    -38446.11    194.90119   -38641.011   -2433.4247 
   25400     301.1957   -38465.398    179.56143    -38644.96    2134.0575 
   25600    320.97924   -38474.548    191.35563   -38665.903   -5139.0423 
   25800    308.31812   -38468.238    183.80755   -38652.046    2584.4427 
   26000    328.49331    -38428.53    195.83523   -38624.365     9480.065 
   26200    286.58938   -38465.558     170.8537   -38636.411    4049.5449 
   26400    281.49737   -38482.586    167.81804   -38650.404    2055.0922 
   26600     310.5453   -38450.386    185.13531   -38635.522    13635.642 
   26800    301.15493   -38457.253    179.53713    -38636.79    6959.1556 
   27000    304.54837   -38469.229    181.56017   -38650.789    1453.0967 
   27200    282.07618    -38485.25     168.1631   -38653.413   -5890.7329 
   27400    312.89119   -38471.058    186.53384   -38657.592   -11400.525 
   27600    309.76419   -38462.097    184.66964   -38646.767   -12065.699 
   27800    277.23303   -38491.347     165.2758   -38656.623   -12897.428 
   28000    300.18965   -38467.126    178.96166   -38646.088   -8846.0874 
   28200    315.97788    -38457.37    188.37401   -38645.744   -16048.307 
   28400    283.64315   -38485.255    169.09727   -38654.352   -10475.589 
   28600    319.33158   -38450.261    190.37335   -38640.635   -2950.0372 
   28800    286.76594   -38468.426    170.95896   -38639.385    10822.472 
   29000    290.71603   -38473.357    173.31385   -38646.671    5818.7299 
   29200    299.93608   -38469.567     178.8105   -38648.377   -5618.4848 
   29400    330.78041   -38447.913    197.19871   -38645.112    1712.3771 
   29600    305.04976   -38480.457    181.85908   -38662.316    5331.1363 
   29800     295.3408   -38464.796    176.07097   -38640.867    4438.0393 
   30000    321.84901   -38473.388    191.87415   -38665.262    2840.7581 
   30200    285.75699   -38489.745    170.35746   -38660.102   -1034.8739 
   30400    309.21417   -38457.111    184.34174   -38641.453   -3383.9572 
   30600    285.65244   -38463.527    170.29513   -38633.822    4690.8046 
   30800    293.33953   -38477.535    174.87788   -38652.412    3277.6586 
   31000    300.78373   -38468.335    179.31583   -38647.651    1244.3579 
   31200    291.87144   -38480.436    174.00266   -38654.438   -8128.7655 
   31400    312.65212   -38467.221    186.39132   -38653.613   -2543.7233 
   31600    282.17879   -38458.714    168.22427   -38626.939   -5999.4178 
   31800    293.98194   -38484.796    175.26087   -38660.056   -1284.2388 
   32000    305.35341   -38482.067     182.0401   -38664.107   -941.95576 
   32200    299.42097   -38460.871    178.50341   -38639.375   -3392.4038 
   32400    259.38248   -38480.709    154.63398   -38635.343   -15513.706 
   32600    313.72085   -38454.253    187.02845   -38641.282   -2424.6225 
   32800    268.39783   -38463.392    160.00859   -38623.401   -8769.6278 
   33000    270.76172   -38492.359    161.41785   -38653.777   -3387.1965 
   33200    275.52354   -38488.574    164.25667   -38652.831   -292.25848 
   33400    308.36848    -38457.96    183.83757   -38641.798    1873.4182 
   33600    289.82627   -38475.344    172.78341   -38648.128    5442.5632 
   33800    303.37988   -38471.698    180.86356   -38652.561    305.77375 
   34000    301.67423   -38446.635    179.84671   -38626.481   -6856.1173 
   34200    305.35762   -38470.258    182.04261     -38652.3   -9498.1798 
   34400    307.74986   -38475.079    183.46878   -38658.547   -10354.395 
   34600    291.96797   -38461.902    174.06021   -38635.962    4280.8011 
   34800    318.03062    -38469.31    189.59777   -38658.908   -2363.7634 
   35000    322.02401    -38466.79    191.97848   -38658.769   -2080.6562 
   35200    263.04271    -38485.75    156.81607   -38642.566    845.75771 
   35400    302.06841   -38464.265    180.08171   -38644.346    11125.613 
   35600    323.47956   -38455.804    192.84622   -38648.651    2676.2288 
   35800    275.52698   -38471.677    164.25872   -38635.936    1520.2955 
   36000    292.29749   -38481.101    174.25666   -38655.357   -1116.3014 
   36200    356.00972    -38449.77    212.23947    -38662.01    3496.3937 
   36400    285.67672   -38471.583    170.30961   -38641.893     9036.424 
   36600    298.21972   -38478.216    177.78727   -38656.003    1979.4289 
   36800    293.98386   -38454.414    175.26201   -38629.676   -7380.2557 
   37000    309.23805   -38477.262    184.35598   -38661.618   -13621.612 
   37200    284.83863   -38481.228    169.80997   -38651.038   -1165.7251 
   37400    323.67794   -38459.918    192.96449   -38652.882   -2484.7513 
   37600    292.08049    -38482.43    174.12729   -38656.557   -2997.4249 
   37800    325.82922    -38445.73      194.247   -38639.977   -5042.2566 
   38000    285.30578   -38458.726    170.08847   -38628.814    4582.2536 
   38200    283.88074   -38479.339    169.23891   -38648.578    5998.6895 
   38400    350.97281   -38444.472    209.23666   -38653.708    8859.1671 
   38600    315.58084   -38451.897    188.13731   -38640.034    5653.7841 
   38800    302.80953   -38476.257    180.52354    -38656.78    115.92992 
   39000    308.81146   -38458.048    184.10166    -38642.15   -11440.728 
   39200    300.01996   -38457.778     178.8605   -38636.638   -4546.0264 
   39400    290.55011   -38469.431    173.21494   -38642.646   -3025.3985 
   39600    308.15851    -38479.64    183.71239   -38663.352    3801.6611 
   39800    285.22617   -38481.767    170.04101   -38651.808   -2514.6017 
   40000    311.55475   -38449.939    185.73711   -38635.676   -6043.2794 
   40200    295.50845   -38484.816    176.17091   -38660.987    4886.0483 
   40400    316.41049    -38476.48    188.63192   -38665.112    7631.3704 
   40600    308.37609   -38453.647    183.84211   -38637.489    79.841633 
   40800    272.26346   -38496.015    162.31313   -38658.329   -3613.5052 
   41000     278.5905   -38473.896    166.08507   -38639.981    2278.8402 
   41200    302.68593   -38460.427    180.44985   -38640.877    6666.6961 
   41400    256.63121   -38496.177    152.99378   -38649.171    2771.7725 
   41600    324.48853   -38463.297    193.44773   -38656.744    1684.1058 
   41800    294.15427   -38462.517     175.3636   -38637.881    8053.6749 
   42000    288.64141   -38478.898    172.07704   -38650.975    10559.345 
   42200    295.49005   -38464.792    176.15994   -38640.952    1539.8316 
   42400    312.09795   -38459.924    186.06094   -38645.985   -7260.9872 
   42600    301.27091   -38482.843    179.60627   -38662.449   -16500.908 
   42800    296.02513   -38474.902    176.47894   -38651.381   -8304.3277 
   43000    315.20359   -38458.903    187.91241   -38646.815    912.07302 
   43200    340.28016   -38428.717    202.86211   -38631.579    4875.4336 
   43400    310.37244   -38473.403    185.03226   -38658.435    7156.0796 
   43600    295.10906   -38476.495    175.93281   -38652.428     16584.72 
   43800    302.82962   -38456.575    180.53551   -38637.111    6175.9918 
   44000    309.33269   -38470.412     184.4124   -38654.824    6796.1453 
   44200    283.71561   -38464.965    169.14047   -38634.106    9374.9126 
   44400    290.00926   -38482.274     172.8925   -38655.167   -4723.5337 
   44600    302.18474   -38476.062    180.15106   -38656.213   -2361.1973 
   44800    318.04962   -38461.622     189.6091   -38651.231   -8581.9117 
   45000     285.4024   -38473.293    170.14607   -38643.439     4287.054 
   45200    296.78363   -38483.264    176.93113   -38660.195    2371.9653 
   45400    302.78427   -38467.734    180.50848   -38648.243   -2500.2876 
   45600    308.60609   -38457.263    183.97923   -38641.242   -6728.0667 
   45800    291.04313     -38498.1    173.50886   -38671.609    5923.0069 
   46000    300.96119   -38477.602    179.42163   -38657.023    8822.9471 
   46200    311.54927   -38458.506    185.73384    -38644.24    8117.6007 
   46400    291.84625   -38475.606    173.98765   -38649.594    4721.8873 
   46600    281.85387   -38488.164    168.03057   -38656.194   -1280.9875 
   46800    275.10976   -38461.799    164.00999   -38625.809    233.71019 
   47000    302.16226   -38464.806    180.13766   -38644.944   -16489.625 
   47200    270.55828   -38500.587    161.29657   -38661.883   -3401.4978 
   47400     291.7529   -38477.445    173.93199   -38651.377   -1380.0717 
   47600     322.7272   -38459.777    192.39769   -38652.175   -2095.8922 
   47800    283.40918    -38490.66    168.95779   -38659.618   -8485.5707 
   48000    279.86042   -38483.766    166.84215   -38650.608    -5029.819 
   48200    307.03165   -38465.395    183.04061   -38648.435    6910.3158 
   48400    287.21915   -38476.151    171.22915    -38647.38    5756.6972 
   48600    328.50538   -38459.868    195.84243   -38655.711   -3922.0481 
   48800    310.32424   -38452.722    185.00353   -38637.725   -7576.1172 
   49000    295.80792   -38482.869    176.34944   -38659.218    4556.0404 
   49200    322.36905   -38463.464    192.18418   -38655.648    11592.588 
   49400    327.93431   -38445.327    195.50198   -38640.829    14083.091 
   49600    313.91589   -38470.292    187.14473   -38657.437    5823.5257 
   49800    287.03076   -38466.717    171.11683   -38637.834   -7739.2986 
   50000    280.94718   -38476.107    167.49003   -38643.597   -11442.256 
   50200    294.52904   -38464.327    175.58702   -38639.914   -2261.9324 
   50400    298.06314    -38459.19    177.69392   -38636.884    8393.3354 
   50600    283.18756   -38485.291    168.82567   -38654.117    13115.556 
   50800    324.91297   -38446.245    193.70077   -38639.946   -3608.5942 
   51000    310.24476   -38457.967    184.95614   -38642.923    3708.6116 
   51200    296.90933   -38479.361    177.00606   -38656.367    3643.8082 
   51400    321.63397    -38459.12    191.74596   -38650.866    13666.254 
   51600    295.29993   -38454.758     176.0466   -38630.805     9205.175 
   51800    305.27382   -38489.779    181.99266   -38671.772   -2076.8343 
   52000    270.08053   -38475.781    161.01175   -38636.793    2012.6975 
   52200    300.04324   -38466.083    178.87438   -38644.957   -7542.1404 
   52400     338.3664   -38454.423     201.7212   -38656.144   -3181.2801 
   52600      301.566   -38456.848    179.78219    -38636.63   -8608.9495 
   52800    289.05479   -38479.612    172.32348   -38651.936   -12170.073 
   53000    279.93281   -38466.436    166.88531   -38633.321   -5759.4776 
   53200     291.4124   -38423.475      173.729   -38597.204   -652.33982 
   53400    308.57816   -38457.786    183.96257   -38641.748   -1178.5404 
   53600    317.23622   -38477.015    189.12418    -38666.14   -1441.4366 
   53800     312.6118   -38466.613    186.36728    -38652.98    8410.7954 
   54000    306.67355   -38459.799    182.82712   -38642.626   -3216.3106 
   54200    299.51018   -38489.856    178.55659   -38668.413   -4108.1134 
   54400    291.43473   -38468.297    173.74231   -38642.039   -2860.2218 
   54600    291.20036   -38468.024    173.60259   -38641.627    4608.8905 
   54800    321.44148   -38448.403     191.6312   -38640.034   -3225.6444 
   55000    327.16087   -38452.549    195.04088    -38647.59    3546.7242 
   55200    302.42643   -38472.858    180.29515   -38653.153    11190.518 
   55400    307.22323   -38453.221    183.15482   -38636.376    17915.167 
   55600    314.60854   -38454.538    187.55766   -38642.095    627.97652 
   55800    282.98905   -38480.745    168.70732   -38649.452   -2651.1224 
   56000    303.39181   -38452.546    180.87067   -38633.417    6827.3256 
   56200    295.46222   -38490.666    176.14335   -38666.809   -3730.3219 
   56400    307.70528   -38470.969     183.4422   -38654.411   -8008.4544 
   56600    303.51449   -38458.931    180.94381   -38639.875   -501.14944 
   56800    277.55006   -38484.009     165.4648   -38649.474   -8479.8966 
   57000    299.31232    -38470.36    178.43863   -38648.799   -3277.1032 
   57200    330.25156   -38440.813    196.88344   -38637.696   -4099.9194 
   57400    285.08575   -38481.045    169.95729   -38651.002     1360.412 
   57600     292.0561   -38472.826    174.11275   -38646.939    2301.1909 
   57800    318.63226   -38450.461    189.95645   -38640.417   -12337.911 
   58000    308.77602   -38470.966    184.08053   -38655.047   -7646.9606 
   58200    243.14644   -38491.726    144.95467   -38636.681   -474.76949 
   58400     298.3333   -38465.388    177.85498   -38643.243    5837.7682 
   58600    300.34967   -38466.718    179.05707   -38645.775    3541.3635 
   58800    270.34658   -38500.501    161.17036   -38661.672    1693.6179 
   59000    297.39238   -38475.435    177.29404   -38652.729    5638.0201 
   59200    316.27479   -38461.404    188.55101   -38649.955     1069.149 
   59400    300.04658    -38457.11    178.87638   -38635.986   -4930.4371 
   59600    267.57267   -38486.046    159.51666   -38645.563   -1173.9763 
   59800    317.92023   -38454.708    189.53197    -38644.24   -6683.0238 
   60000    267.90927   -38465.362    159.71733    -38625.08    -1052.906 
   60200    307.42741    -38479.49    183.27655   -38662.766   -5390.5287 
   60400    314.40293   -38449.689    187.43508   -38637.124   -11155.777 
   60600    277.14822   -38481.237    165.22524   -38646.462   -4200.5313 
   60800    297.48065   -38482.717    177.34666   -38660.064    3791.5195 
   61000    304.15296   -38459.791    181.32444   -38641.116    6942.2308 
   61200     281.0861   -38472.214    167.57286   -38639.787    15730.765 
   61400    272.23867   -38488.476    162.29835   -38650.774     9173.485 
   61600    330.64765   -38454.226    197.11957   -38651.346    6018.9874 
   61800    302.15232   -38468.315    180.13173   -38648.446    4742.2099 
   62000    273.33311   -38504.622    162.95082   -38667.573    5947.2574 
   62200    282.11835   -38478.922    168.18824   -38647.111    2991.8355 
   62400    298.98884   -38463.987    178.24579   -38642.233   -5544.0842 
   62600    318.33259   -38457.995    189.77779   -38647.772   -8913.9811 
   62800    286.06966   -38482.719    170.54387   -38653.263    4791.4522 
   63000    328.33593   -38447.978    195.74141   -38643.719     9263.095 
   63200    298.94038   -38466.088     178.2169   -38644.305   -1778.0684 
   63400     302.8677   -38472.688    180.55822   -38653.246   -8904.5408 
   63600    284.27201   -38486.178    169.47217   -38655.651   -4572.0884 
   63800    305.93801   -38478.208    182.38862   -38660.597    4752.3861 
   64000    299.77009    -38456.42    178.71154   -38635.132    1582.5458 
   64200    293.86737   -38477.832    175.19256   -38653.024   -5986.8773 
   64400    262.41026   -38509.865    156.43903   -38666.304   -3548.9544 
   64600    299.93364   -38477.552    178.80904   -38656.361    6086.8384 
   64800    310.14287   -38455.846     184.8954   -38640.741    2223.4276 
   65000    296.77288   -38459.037    176.92472   -38635.961   -2812.7619 
   65200    296.49369   -38482.448    176.75828   -38659.206   -6657.9147 
   65400    299.82152    -38451.24     178.7422   -38629.982   -5477.7958 
   65600    284.97842   -38477.226    169.89331    -38647.12    3319.8167 
   65800    307.73234   -38473.934    183.45833   -38657.393    2992.5492 
   66000     289.6295   -38467.155    172.66611   -38639.821    -4298.337 
   66200    276.68469   -38491.951     164.9489     -38656.9    6483.5302 
   66400    310.13788   -38458.618    184.89242    -38643.51    8354.6633 
   66600    284.95885   -38480.879    169.88164   -38650.761    15321.307 
   66800    295.82288   -38457.649    176.35836   -38634.007    16718.942 
   67000     335.8871   -38456.454    200.24313   -38656.697   -2451.2109 
   67200    268.98321   -38484.145    160.35757   -38644.502    -95.24828 
   67400    312.12014   -38457.784    186.07417   -38643.858   -1309.0548 
   67600    291.91497   -38485.647    174.02862   -38659.676   -6848.7549 
   67800    283.16631   -38485.924      168.813   -38654.737    -1047.556 
   68000    309.97818   -38461.302    184.79722   -38646.099    9520.9317 
   68200    288.40723   -38481.648    171.93743   -38653.585    6032.1665 
   68400    293.76066   -38486.767    175.12895   -38661.896    677.22282 
   68600    292.58047    -38467.48    174.42536   -38641.905    -5512.229 
   68800    273.14646   -38481.379    162.83954   -38644.219    645.51737 
   69000    278.43467   -38490.803    165.99217   -38656.795   -5220.7512 
   69200    305.41836   -38462.386    182.07882   -38644.464   -7901.1397 
   69400    295.36353    -38472.96    176.08451   -38649.044    -14583.24 
   69600    269.28761   -38491.747    160.53904   -38652.286   -5616.9493 
   69800    322.64259   -38462.224    192.34726   -38654.571   -11962.308 
   70000    284.01384   -38477.226    169.31826   -38646.544   -972.25519 
   70200    259.81656   -38496.793    154.89276   -38651.686   -5535.8607 
   70400    305.58657   -38455.681     182.1791    -38637.86   -8554.9918 
   70600    310.87479   -38467.043    185.33174   -38652.375   -19343.998 
   70800    259.85152   -38490.068     154.9136   -38644.982   -2329.4337 
   71000    294.05721   -38473.557    175.30574   -38648.863    7210.2943 
   71200    321.03652   -38458.941    191.38978   -38650.331    4987.1302 
   71400    282.76534   -38487.551    168.57395   -38656.125    -7391.639 
   71600    294.77786    -38480.96    175.73536   -38656.696   -5301.6961 
   71800    312.79729   -38453.364    186.47786   -38639.842   -2658.4246 
   72000    289.78449   -38482.612    172.75851    -38655.37    1910.8289 
   72200    284.84195   -38470.455    169.81195   -38640.267    -3062.352 
   72400    307.49321   -38450.157    183.31577   -38633.473   -4823.0189 
   72600    304.05538   -38476.419    181.26627   -38657.686    894.12971 
   72800    269.24545   -38482.305    160.51391   -38642.819   -464.69806 
   73000    287.72707    -38455.84    171.53195   -38627.372    8900.4064 
   73200    292.36147   -38480.166     174.2948   -38654.461   -1096.3657 
   73400    300.05342   -38478.791    178.88045   -38657.671   -811.65784 
   73600    313.02135   -38449.316    186.61144   -38635.928   -2481.7538 
   73800    295.99763   -38482.268    176.46254    -38658.73   -9174.1106 
   74000    298.37018   -38475.809    177.87696   -38653.686   -11219.518 
   74200    301.79572   -38450.962    179.91914   -38630.881   -9292.2136 
   74400    296.96235   -38480.361    177.03767   -38657.399   -6332.1266 
   74600    279.23088   -38494.208    166.46684   -38660.674    -14.87439 
   74800    318.56175   -38456.123    189.91441   -38646.037   -1279.3548 
   75000    307.62278   -38472.873    183.39301   -38656.266   -1692.1889 
   75200    271.47852   -38488.966    161.84518   -38650.811   -8118.1636 
   75400    311.01616   -38451.912    185.41602   -38637.328    5319.3913 
   75600    312.98103   -38477.028     186.5874   -38663.616    4117.6386 
   75800    319.40436   -38460.259    190.41674   -38650.676    581.68441 
   76000    338.96448   -38438.221    202.07775   -38640.299    3775.2339 
   76200    275.51954   -38473.368    164.25428   -38637.623   -3803.4851 
   76400    308.39362   -38466.066    183.85256   -38649.919   -9385.6419 
   76600    313.98096   -38449.667    187.18352    -38636.85   -179.19091 
   76800    278.74485   -38484.171    166.17709   -38650.348    7876.8068 
   77000    310.93839   -38461.571    185.36966   -38646.941    8351.8724 
   77200    325.32506   -38438.946    193.94644   -38632.892    -8410.084 
   77400    296.81735   -38476.165    176.95123   -38653.116   -13465.098 
   77600    304.12792   -38480.845    181.30951   -38662.155    4048.5103 
   77800    313.92908   -38456.417    187.15259   -38643.569    2614.6621 
   78000    347.42052   -38449.213    207.11891   -38656.331   -4127.9999 
   78200    296.71761   -38476.858    176.89177    -38653.75    108.25116 
   78400    312.26426   -38468.887    186.16009   -38655.047    8860.2057 
   78600    323.59677   -38453.272     192.9161   -38646.188    3025.5898 
   78800    306.39159   -38473.024    182.65903   -38655.683   -11726.186 
   79000    302.05126   -38462.843    180.07148   -38642.915    3549.2487 
   79200     328.2559   -38449.305     195.6937   -38644.999   -318.99733 
   79400    301.57616   -38471.881    179.78825   -38651.669   -3582.2577 
   79600    309.76383   -38468.892    184.66943   -38653.562   -5563.5826 
   79800    305.96852    -38448.91    182.40681   -38631.317   -1753.5308 
   80000    285.80423   -38478.746    170.38562   -38649.132    1639.5676 
   80200    311.16487   -38475.473    185.50468   -38660.978   -8055.6954 
   80400    316.05622   -38430.185    188.42071   -38618.605   -174.40271 
   80600    295.55577   -38467.789    176.19912   -38643.989    4011.5283 
   80800    272.68361   -38479.022    162.56361   -38641.585    7446.2649 
   81000    320.15168   -38457.776    190.86227   -38648.638    1211.7167 
   81200     323.5505   -38457.099    192.88852   -38649.988   -4789.6533 
   81400    287.22994    -38488.75    171.23558   -38659.986   -5868.5497 
   81600    307.73929   -38457.687    183.46247    -38641.15   -422.18047 
   81800    304.05333   -38460.311    181.26505   -38641.576   -2937.5519 
   82000    294.18283   -38479.393    175.38063   -38654.774   -323.08092 
   82200    312.61287   -38472.812    186.36792    -38659.18   -3495.2559 
   82400    301.47671   -38466.489    179.72896   -38646.218    8357.4192 
   82600    295.89238   -38488.744    176.39979   -38665.143    558.17701 
   82800    301.03861   -38480.059    179.46778   -38659.527    1418.4975 
   83000     306.8799   -38460.184    182.95014   -38643.134   -5657.1617 
   83200    276.96676   -38492.111    165.11706   -38657.228    -7491.095 
   83400    300.77463   -38458.526    179.31041   -38637.837   -9805.6489 
   83600     298.2589   -38464.597    177.81063   -38642.407     2481.861 
   83800    296.69062   -38485.553    176.87567   -38662.429     2143.546 
   84000     308.7591    -38452.63    184.07044   -38636.701   -689.99511 
   84200     300.2367   -38456.341    178.98971   -38635.331    8763.9525 
   84400    284.11922   -38475.932    169.38108   -38645.313    1114.8964 
   84600    290.05936   -38465.346    172.92237   -38638.268    4320.7501 
   84800    335.10442   -38443.943    199.77653    -38643.72   -2537.9821 
   85000    303.82299   -38479.016    181.12772   -38660.144    9107.8798 
   85200    299.95681    -38477.55    178.82286   -38656.373    8739.2942 
   85400    304.44401   -38439.339    181.49795   -38620.837   -6971.1402 
   85600    278.65437   -38468.922    166.12315   -38635.045    -18794.03 
   85800    283.17646   -38475.945    168.81905   -38644.764   -2802.3569 
   86000     355.5829   -38444.344    211.98502   -38656.329    6383.7907 
   86200    283.79393   -38477.419    169.18716   -38646.606    3505.4988 
   86400    306.55366   -38466.113    182.75564   -38648.869    1417.7669 
   86600    274.92837   -38495.856    163.90185   -38659.758    8742.0298 
   86800    295.60148   -38477.848    176.22637   -38654.074    6215.4502 
   87000    304.33739   -38466.968    181.43439   -38648.403    4906.7697 
   87200    315.58582   -38488.322    188.14027   -38676.462   -4596.1198 
   87400    298.88435   -38478.622     178.1835   -38656.806   -4357.7443 
   87600    328.04278   -38460.658    195.56664   -38656.225   -1107.9907 
   87800    301.60936    -38491.02    179.80804   -38670.828    1046.6095 
   88000    283.56529   -38475.974    169.05085   -38645.025    6752.7015 
   88200    305.41262   -38471.378     182.0754   -38653.454   -291.67165 
   88400     316.2155   -38450.829    188.51567   -38639.345   -925.74899 
   88600    300.50074   -38454.829    179.14713   -38633.976   -2949.4014 
   88800     289.7643    -38485.64    172.74646   -38658.387   -3713.4663 
   89000    301.94287   -38454.627    180.00687   -38634.634    1756.2712 
   89200    304.02344    -38466.67    181.24723   -38647.918    360.74124 
   89400    289.60447   -38471.522    172.65119   -38644.174    4333.2706 
   89600    321.72481   -38443.336    191.80011   -38635.136     4513.481 
   89800     301.3043   -38457.117    179.62618   -38636.743    2749.7464 
   90000    298.75354    -38475.95    178.10551   -38654.056   -3984.8757 
   90200    316.42327   -38470.511    188.63953    -38659.15   -4056.6313 
   90400    319.44876    -38447.66    190.44321   -38638.103   -5559.0995 
   90600    305.99677   -38468.388    182.42365   -38650.811   -3162.4558 
   90800     297.5558   -38475.419    177.39146    -38652.81   -7287.3795 
   91000    280.33851   -38489.738    167.12717   -38656.865    -1599.954 
   91200    324.53851   -38455.441    193.47753   -38648.918    4567.1957 
   91400     294.9275   -38477.287    175.82457   -38653.111   -748.92271 
   91600    273.97775   -38464.065    163.33513   -38627.401    11215.615 
   91800    303.57824   -38463.341    180.98181   -38644.323    8340.1861 
   92000    299.97134   -38475.686    178.83151   -38654.518    5251.9982 
   92200    301.01612    -38481.99    179.45438   -38661.444    2441.5167 
   92400     295.8499   -38451.724    176.37447   -38628.099   -3651.4852 
   92600    289.75913   -38481.764    172.74338   -38654.507   -1285.5461 
   92800    327.30148   -38466.267    195.12471   -38661.391    -1576.178 
   93000     275.8457   -38466.084    164.44873   -38630.533    813.52905 
   93200    263.01362   -38496.458    156.79873   -38653.256    4160.8988 
   93400    302.03036   -38464.693    180.05903   -38644.752    8699.6509 
   93600     298.1701   -38469.205    177.75768   -38646.962     11584.97 
   93800    288.78503   -38490.326    172.16267   -38662.488    3204.5136 
   94000    289.17155   -38467.755    172.39309   -38640.148    1874.3488 
   94200    307.89938   -38459.194    183.55791   -38642.752   -5576.8135 
   94400    261.12558   -38488.126    155.67315   -38643.799    -5871.861 
   94600    276.25819   -38501.234    164.69464   -38665.928   -157.15997 
   94800    293.79746   -38470.726    175.15088   -38645.877   -3053.5986 
   95000    313.53891   -38456.764    186.91999   -38643.684   -1003.1876 
   95200    268.69677   -38491.415    160.18681   -38651.601    3662.1389 
   95400    292.39736    -38481.12     174.3162   -38655.436   -462.49045 
   95600    283.76081   -38470.629    169.16741   -38639.796   -676.04402 
   95800    290.77403   -38469.738    173.34843   -38643.086    6809.3168 
   96000    330.94563   -38444.651    197.29721   -38641.948    7846.0943 
   96200    299.07407   -38481.595     178.2966   -38659.892     5497.838 
   96400    302.59858   -38464.962    180.39778    -38645.36   -5239.8525 
   96600    291.05086   -38471.839    173.51347   -38645.352   -12259.625 
   96800    283.61869   -38490.554    169.08269   -38659.637   -1697.2681 
   97000    283.08136   -38463.902    168.76235   -38632.665    2227.7299 
   97200    295.08001   -38468.269    175.91549   -38644.184   -7404.7912 
   97400    283.82275   -38493.875    169.20434    -38663.08   -7096.3579 
   97600    310.85256   -38471.827    185.31849   -38657.146    4319.2312 
   97800    295.93616   -38467.896    176.42589   -38644.322    8522.1188 
   98000    270.76879   -38475.942    161.42206   -38637.364    12524.755 
   98200    294.70032   -38477.625    175.68914   -38653.314    9824.8069 
   98400    310.55376   -38450.103    185.14035   -38635.243   -5802.8959 
   98600    301.49849   -38473.234    179.74194   -38652.976   -3252.7056 
   98800    313.99179   -38479.932    187.18998   -38667.122    3141.1499 
   99000    317.15314   -38452.853    189.07465   -38641.927    2714.7288 
   99200    303.04523   -38483.178    180.66406   -38663.842    8243.3788 
   99400    282.23384   -38477.744    168.25709   -38646.001    -2634.293 
   99600    313.31647   -38457.319    186.78737   -38644.106   -7748.9195 
   99800    297.32358   -38472.446    177.25302   -38649.699   -6739.2841 
  100000     288.9785   -38471.437    172.27801   -38643.715   -3170.3039 
  100200     307.9588   -38455.296    183.59334    -38638.89   -311.41022 
  100400    305.27281   -38461.149    181.99205   -38643.141   -2385.2297 
  100600    293.12661   -38483.851    174.75095   -38658.602   -8268.8876 
  100800    290.24562   -38453.948    173.03341   -38626.982    5041.2985 
  101000    294.37105   -38465.542    175.49283   -38641.034    4338.7874 
  101200    293.89605   -38472.966    175.20966   -38648.176    4547.8094 
  101400    313.65741   -38463.268    186.99063   -38650.258    4515.8726 
  101600    300.33089   -38463.447    179.04587   -38642.493    996.78828 
  101800    291.02362   -38489.932    173.49723   -38663.429    6644.3083 
  102000    303.86694    -38455.44    181.15393   -38636.594    9697.8986 
  102200    291.79649   -38466.959    173.95798   -38640.917    923.53434 
  102400    293.05393   -38478.336    174.70762   -38653.044   -5549.9192 
  102600    306.19209   -38469.382    182.54009   -38651.922    -11624.42 
  102800    260.29743   -38469.758    155.17944   -38624.938    7120.6584 
  103000    319.05126    -38442.41    190.20624   -38632.616     11744.08 
  103200    293.67568   -38480.413    175.07829   -38655.491   -572.76237 
  103400    304.06367   -38462.276    181.27121   -38643.547   -6093.2361 
  103600    292.82602    -38457.29    174.57175   -38631.861    10102.461 
  103800    294.07977   -38478.809    175.31919   -38654.128    14029.732 
  104000    301.79058   -38460.438    179.91608   -38640.354   -7740.3122 
  104200    309.83882   -38453.315    184.71413   -38638.029   -11772.129 
  104400    300.93823   -38486.976    179.40794   -38666.384   -5905.7005 
  104600    315.95506   -38459.965     188.3604   -38648.326   -1397.0374 
  104800    332.05356   -38458.506    197.95772   -38656.464    -1783.638 
  105000    292.72504   -38472.156    174.51155   -38646.668   -2247.1582 
  105200    266.29852   -38506.173    158.75706    -38664.93   -402.05641 
  105400    294.49605   -38471.631    175.56736   -38647.198   -1546.0769 
  105600    299.63905   -38459.019    178.63342   -38637.653   -3208.9852 
  105800    280.43278   -38487.102    167.18337   -38654.285    3537.1222 
  106000    315.10107   -38464.699    187.85129    -38652.55    2034.2309 
  106200    307.10499    -38462.28    183.08433   -38645.364   -787.03242 
  106400    286.90545   -38491.485    171.04213   -38662.527   -2712.9663 
  106600    305.70107   -38480.548    182.24736   -38662.795   -4428.8559 
  106800    318.44319   -38455.149    189.84373   -38644.993   -9072.5797 
  107000    293.22049   -38483.692    174.80692   -38658.499    -13802.32 
  107200    285.55722   -38472.462    170.23836     -38642.7   -20032.445 
  107400    317.27458   -38451.467    189.14705   -38640.614    -617.7335 
  107600    296.84269   -38482.599    176.96634   -38659.565     4573.508 
  107800    318.21886   -38453.992    189.70999   -38643.702    3604.2775 
  108000    305.44408   -38441.176    182.09416    -38623.27   -7549.3424 
  108200    288.78614   -38467.524    172.16333   -38639.687   -1125.2265 
  108400    279.36714    -38487.17    166.54807   -38653.718    1927.1003 
  108600    318.43544   -38455.215    189.83911   -38645.054      5458.32 
  108800    303.27439   -38465.459    180.80067    -38646.26   -2663.1924 
  109000    282.35912   -38489.845    168.33178   -38658.177   -154.98675 
  109200    299.19071   -38469.418    178.36614   -38647.784    6226.8159 
  109400    309.41077   -38456.023    184.45894   -38640.482    9426.4201 
  109600    263.59564   -38494.722     157.1457   -38651.867   -3280.6681 
  109800    283.68119   -38465.076    169.11995   -38634.196   -14585.703 
  110000    289.45646    -38462.91    172.56295   -38635.473   -3313.2312 
  110200    293.79246   -38469.616     175.1479   -38644.764    7300.9026 
  110400    298.61559   -38473.751    178.02327   -38651.774    8726.4682 
  110600     309.3159   -38487.595    184.40239   -38671.997    3212.6908 
  110800    305.40509   -38456.938    182.07091   -38639.009    6937.7351 
  111000     283.6519   -38475.754    169.10249   -38644.857    8600.2524 
  111200    290.04851   -38473.728     172.9159   -38646.643    8430.9558 
  111400    336.32222    -38430.24    200.50253   -38630.743    1006.2769 
  111600    303.87951   -38469.436    181.16142   -38650.598   -1872.4661 
  111800    296.92491   -38474.835    177.01535    -38651.85   -4495.0372 
  112000     317.4514   -38435.969    189.25246   -38625.222   -5278.5844 
  112200    299.73917   -38477.679    178.69311   -38656.373   -3699.5536 
  112400     299.4387   -38469.089    178.51397   -38647.603    7673.8838 
  112600    299.24988   -38459.566    178.40141   -38637.967    6485.1276 
  112800    270.24938   -38490.264    161.11241   -38651.376    7300.2194 
  113000    315.58743   -38469.318    188.14124   -38657.459    2464.8227 
  113200    316.53342   -38461.762     188.7052   -38650.467     941.8387 
  113400    290.88532    -38477.35    173.41478   -38650.765     6359.323 
  113600    278.92326   -38498.765    166.28345   -38665.048   -5295.3114 
  113800    280.86541   -38458.267    167.44129   -38625.708   -57.440848 
  114000    292.74124   -38466.718    174.52121   -38641.239   -128.77335 
  114200    291.97138   -38485.626    174.06225   -38659.689    7687.7391 
  114400    323.44414   -38462.238    192.82511   -38655.063    3551.5347 
  114600    306.71616    -38471.29    182.85252   -38654.143   -5385.7961 
  114800    304.78441    -38481.87    181.70089   -38663.571    9439.6605 
  115000    294.59883   -38459.467    175.62863   -38635.095    18158.892 
  115200     301.2797   -38462.849    179.61151    -38642.46    5715.7469 
  115400     304.0995   -38479.082    181.29257   -38660.374   -3828.8043 
  115600    288.91654   -38473.638    172.24107   -38645.879   -5341.4237 
  115800    296.81926   -38465.205    176.95237   -38642.157    623.96865 
  116000    297.05738   -38472.152    177.09432   -38649.247    7192.0932 
  116200    281.17455   -38490.889    167.62559   -38658.514    1260.3382 
  116400    307.59356   -38458.244     183.3756    -38641.62   -5004.4365 
  116600    325.60436   -38469.772    194.11295   -38663.885   -3706.2996 
  116800    291.53561   -38495.326    173.80245   -38669.129   -7269.8736 
  117000    293.67826     -38472.7    175.07982    -38647.78   -11840.329 
  117200    316.50954    -38458.31    188.69096   -38647.001   -14947.255 
  117400     289.8571   -38464.222    172.80179   -38637.024    -15488.66 
  117600    301.58638   -38485.126    179.79434    -38664.92    -14809.86 
  117800    311.67611   -38448.312    185.80946   -38634.121   -929.81526 
  118000    309.19477   -38448.825    184.33018   -38633.155   -6932.4558 
  118200    287.94671   -38479.792    171.66289   -38651.455   -9208.8963 
  118400    321.82269   -38468.724    191.85846   -38660.583   -478.90464 
  118600    302.81736   -38453.895    180.52821   -38634.423    11909.101 
  118800    284.48515   -38490.654    169.59924   -38660.253    7922.3807 
  119000    307.35467   -38464.052    183.23318   -38647.285    1353.2804 
  119200    268.77708   -38466.956    160.23468    -38627.19    553.53714 
  119400    265.43816   -38501.612    158.24415   -38659.856    4955.3926 
  119600    312.16625   -38464.585    186.10166   -38650.687    -1057.675 
  119800     306.6694   -38465.225    182.82464    -38648.05     5227.124 
  120000    285.23995   -38492.961    170.04922    -38663.01   -1154.2803 
  120200    310.58345   -38463.234    185.15805   -38648.392   -7093.9928 
  120400    330.59149   -38458.171    197.08609   -38655.257   -4719.2268 
  120600    282.85201   -38491.122    168.62562   -38659.747    4936.4935 
  120800    316.67817   -38473.543     188.7915   -38662.334    2191.7013 
  121000    294.64066   -38465.132    175.65357   -38640.786     5208.605 
  121200    276.46782   -38488.814    164.81961   -38653.633    -7797.511 
  121400    316.86632   -38472.872    188.90366   -38661.775    -12472.13 
  121600    312.88741   -38459.955    186.53159   -38646.486   -7826.5373 
  121800    289.18524   -38479.824    172.40126   -38652.225    91.425419 
  122000    302.25439   -38459.879    180.19258   -38640.071    11085.883 
  122200    308.38902   -38464.206    183.84982   -38648.055   -1386.4301 
  122400    291.28802   -38482.155    173.65485   -38655.809   -3388.9888 
  122600    305.42498   -38468.376    182.08277   -38650.459     1804.016 
  122800    295.21021   -38465.578    175.99311   -38641.572    8951.1359 
  123000    293.95498   -38490.688    175.24479   -38665.933    5567.6767 
  123200    297.96239   -38473.022    177.63386   -38650.656   -8383.9811 
  123400    297.35447   -38458.947    177.27144   -38636.218    -9148.038 
  123600    275.07614   -38473.396    163.98994   -38637.386    -3775.998 
  123800    278.68703   -38495.236    166.14262   -38661.379    4669.8921 
  124000    306.06595    -38462.85    182.46489   -38645.315    8757.0408 
  124200    297.99758   -38465.197    177.65483   -38642.851    -6257.717 
  124400     282.5697    -38501.13    168.45732   -38669.587   -5102.3652 
  124600     289.5823   -38478.661    172.63796   -38651.299     7850.766 
  124800    329.75646   -38456.772    196.58827    -38653.36    6518.1612 
  125000     318.3528    -38478.73    189.78985    -38668.52   -7275.3128 
  125200    288.77253    -38486.67    172.15521   -38658.825   -7223.5173 
  125400    297.22945   -38461.574     177.1969   -38638.771   -1495.8752 
  125600    257.75058   -38482.621     153.6611   -38636.282    458.86979 
  125800     282.1761   -38488.492    168.22267   -38656.715   -5650.4418 
  126000    301.72356   -38453.471    179.87612   -38633.347    1181.5486 
  126200     286.1224   -38479.283     170.5753   -38649.858    2572.4235 
  126400    290.20784   -38481.242    173.01089   -38654.253   -5748.2354 
  126600    304.23662   -38449.365    181.37431    -38630.74   -4060.3215 
  126800    296.44577   -38481.973    176.72971   -38658.702   -4751.9341 
  127000    307.68487   -38470.202    183.43003   -38653.632    -8180.333 
  127200     302.5878    -38467.25    180.39135   -38647.641   -6529.5569 
  127400    303.16748   -38465.885    180.73693   -38646.622    3085.5285 
  127600    275.89829   -38495.505    164.48008   -38659.985    10724.159 
  127800    297.23959    -38472.06    177.20295   -38649.263    3289.5791 
  128000    298.52962    -38463.21    177.97202   -38641.182   -3199.5774 
  128200    267.48866   -38490.775    159.46658   -38650.242   -1954.1868 
  128400     295.7391   -38470.371    176.30842   -38646.679   -1660.0408 
  128600    319.65638    -38460.13    190.56699   -38650.697   -1425.9236 
  128800    292.60022   -38484.998    174.43714   -38659.435   -7206.7769 
  129000    318.45017    -38450.58    189.84789   -38640.427    4562.2956 
  129200    329.22026   -38451.706    196.26861   -38647.975    223.01721 
  129400    279.47507   -38477.286    166.61242   -38643.898   -9869.5603 
  129600    280.53606   -38465.328    167.24494   -38632.573   -396.04325 
  129800    304.58481   -38451.939    181.58189   -38633.521   -8824.7878 
  130000     291.5789   -38478.336    173.82826   -38652.164   -1093.7982 
  130200    305.88864   -38459.512    182.35918   -38641.872    1906.7756 
  130400    332.42834   -38442.473    198.18115   -38640.654     3947.141 
  130600    305.45406   -38485.283    182.10011   -38667.383    12550.552 
  130800     285.7716   -38471.977    170.36617   -38642.343     12836.98 
  131000    312.16414   -38455.272     186.1004   -38641.372    4580.8574 
  131200    306.83986   -38474.991    182.92627   -38657.917    671.69433 
  131400    277.99968   -38472.234    165.73285   -38637.967   -1621.4099 
  131600    282.87947   -38463.509    168.64199   -38632.151   -2977.3576 
  131800    307.77052   -38467.846    183.48109   -38651.327    9038.0335 
  132000    269.93203   -38489.338    160.92322   -38650.261    4261.6559 
  132200    315.31872   -38455.194    187.98104   -38643.175    4357.1079 
  132400    279.59423   -38474.392    166.68346   -38641.075    1100.6394 
  132600    318.88159   -38473.491    190.10509   -38663.596    -6973.232 
  132800    294.49919   -38469.236    175.56923   -38644.805   -13801.764 
  133000    329.55661   -38442.094    196.46913   -38638.563   -8697.2222 
  133200    320.31743   -38462.964    190.96108   -38653.926   -13320.903 
  133400    316.50938   -38475.387    188.69087   -38664.078   -4889.6542 
  133600    291.29266   -38455.109    173.65762   -38628.767      3412.05 
  133800     342.3514   -38449.443     204.0969    -38653.54    5862.5849 
  134000     289.1396   -38472.929    172.37404   -38645.303    4098.4878 
  134200    302.55183   -38460.286    180.36991   -38640.656   -988.56881 
  134400    271.95567    -38484.05    162.12964    -38646.18    3862.7727 
  134600    291.01548   -38480.886    173.49237   -38654.378    8431.3944 
  134800    311.98113   -38454.434     185.9913   -38640.425   -4810.3273 
  135000    287.34342   -38480.992    171.30323   -38652.295    -5035.225 
  135200    273.05271   -38494.969    162.78365   -38657.753   -13138.762 
  135400    326.85362   -38453.736    194.85771   -38648.593   -16770.291 
  135600    293.61375   -38484.338    175.04136   -38659.379   -4745.1233 
  135800    303.95526   -38458.442    181.20658   -38639.649    5113.1734 
  136000    321.08147   -38446.577    191.41657   -38637.993   -2612.9971 
  136200    286.53339   -38473.525    170.82032   -38644.345   -1690.5827 
  136400     280.3445   -38483.671    167.13074   -38650.802    1066.1026 
  136600    322.25006   -38453.591    192.11325   -38645.704   -9419.7895 
  136800    304.74555     -38473.7    181.67772   -38655.378   -10589.406 
  137000    316.13002   -38466.002    188.46471   -38654.466    6570.8812 
  137200    301.68029   -38445.639    179.85033   -38625.489    10766.746 
  137400    259.47051   -38491.229    154.68646   -38645.916   -6535.5279 
  137600    286.78599   -38463.961    170.97091   -38634.932    2732.2815 
  137800    316.53931   -38457.456    188.70871   -38646.165    8391.5762 
  138000    265.02325   -38496.496     157.9968   -38654.493    16663.113 
  138200    296.33541   -38493.249    176.66391   -38669.913    8528.9038 
  138400    292.36912   -38467.271    174.29937    -38641.57    4578.4827 
  138600    338.33271   -38450.474    201.70111   -38652.175   -4816.5756 
  138800    286.28975     -38483.6    170.67508   -38654.275   -4390.6291 
  139000    308.23627   -38464.355    183.75875   -38648.113   -5122.7835 
  139200    312.34966   -38451.767      186.211   -38637.978   -7986.9726 
  139400    298.44572   -38472.548      177.922    -38650.47   -786.02628 
  139600    308.82745   -38475.816    184.11119   -38659.927   -9376.3279 
  139800    324.11765   -38452.489    193.22663   -38645.716    12890.565 
  140000    289.81491    -38476.95    172.77664   -38649.727    1696.7353 
  140200    299.27794   -38477.746    178.41814   -38656.164   -3209.9003 
  140400    296.68608   -38455.206    176.87297   -38632.079   -7147.5438 
  140600    276.26985   -38484.736    164.70159   -38649.438   -9015.2108 
  140800    306.01864   -38459.468    182.43669   -38641.905   -4137.4868 
  141000    306.61001   -38460.106    182.78924   -38642.895    4075.0879 
  141200    296.02401   -38479.178    176.47827   -38655.656   -634.89608 
  141400    332.66827   -38447.636    198.32418   -38645.961    2691.0453 
  141600     302.6045   -38473.799    180.40131   -38654.201    4737.4484 
  141800    313.43929   -38477.846     186.8606   -38664.706    3825.2432 
  142000    304.67055   -38463.577    181.63301    -38645.21    2094.0968 
  142200    265.52192   -38491.926    158.29408    -38650.22    5510.1328 
  142400    302.37709   -38467.884    180.26574    -38648.15    10812.622 
  142600    301.56055    -38461.11    179.77894   -38640.889    3675.0052 
  142800    271.92058   -38489.926    162.10872   -38652.035   -1023.7831 
  143000    298.01456   -38482.263    177.66496   -38659.928     8731.278 
  143200    301.26489   -38469.562    179.60268   -38649.165   -3990.2028 
  143400     302.3287   -38464.698    180.23689   -38644.935   -9078.8803 
  143600    284.62865   -38454.741    169.68479   -38624.426   -11032.537 
  143800    291.43432   -38473.622    173.74207   -38647.364    -7821.223 
  144000    292.97802   -38486.982    174.66236   -38661.644   -4990.4924 
  144200    313.86381    -38446.97    187.11368   -38634.084    14130.892 
  144400    312.51788   -38460.902    186.31129   -38647.213    12785.709 
  144600     290.8449   -38487.356    173.39068   -38660.746   -5874.9071 
  144800    288.15951   -38476.741    171.78975    -38648.53   -6532.3682 
  145000    326.34838   -38453.832    194.55651   -38648.389   -4998.6082 
  145200     289.2105   -38484.751    172.41631   -38657.167   -1770.0536 
  145400    304.43182   -38469.148    181.49069   -38650.639     171.7104 
  145600    286.64262   -38460.595    170.88544    -38631.48    3185.2325 
  145800    279.54395   -38497.012    166.65348   -38663.666    9709.6337 
  146000    279.12169   -38468.714    166.40175   -38635.116    8771.4338 
  146200    297.53471   -38466.004    177.37889   -38643.383    12800.913 
  146400      287.289   -38495.678    171.27079   -38666.949    5994.8048 
  146600    324.24603   -38468.394    193.30316   -38661.698    8535.7002 
  146800    321.27899   -38459.306    191.53433   -38650.841    5872.6882 
  147000    278.69822   -38486.946    166.14929   -38653.095   -1023.8948 
  147200    321.71798   -38443.463    191.79604   -38635.259    1290.7589 
  147400    287.44299   -38472.828    171.36259    -38644.19   -1574.6133 
  147600    316.74629   -38469.424    188.83211   -38658.257    1027.6407 
  147800    292.70933   -38468.832    174.50218   -38643.334    3591.0939 
  148000    309.17893   -38468.616    184.32073   -38652.937   -5808.1709 
  148200    282.66957   -38466.495    168.51686   -38635.011   -244.44063 
  148400    275.64791   -38474.584    164.33081   -38638.914   -5361.8585 
  148600    300.35158   -38476.513     179.0582   -38655.571    3993.3243 
  148800    309.51752   -38458.865    184.52259   -38643.387    1477.7447 
  149000    256.82605   -38483.065    153.10994   -38636.175   -1556.8448 
  149200    315.22025   -38460.648    187.92234    -38648.57   -4692.8162 
  149400    296.06362    -38464.91    176.50188   -38641.412    5347.5808 
  149600    307.60943   -38465.913    183.38506   -38649.298   -3037.9952 
  149800    274.96649   -38497.578    163.92457   -38661.503     3510.999 
  150000    306.51548   -38471.375    182.73288   -38654.108    306.34084 
  150200    306.07349   -38459.327    182.46938   -38641.796    4082.1859 
  150400    262.47885    -38482.71    156.47992    -38639.19    8320.0323 
  150600    311.26936   -38476.457    185.56697   -38662.024    9014.3622 
  150800    348.06409   -38455.626    207.50258   -38663.129   -3802.1919 
  151000    296.40994   -38468.618    176.70835   -38645.326   -5612.9845 
  151200    292.87932   -38475.352    174.60353   -38649.956   -2274.3969 
  151400    305.12349   -38456.699    181.90303   -38638.602    7167.1549 
  151600     285.6718   -38483.777    170.30668   -38654.084     2725.724 
  151800    303.58613   -38474.421    180.98652   -38655.408    -2774.292 
  152000    307.91695   -38466.098    183.56839   -38649.666    10532.523 
  152200    294.13222     -38473.8    175.35046   -38649.151    -402.8444 
  152400    295.23272   -38482.842    176.00653   -38658.849    9072.8616 
  152600    312.37044   -38454.319    186.22339   -38640.543     12368.66 
  152800    293.14506   -38468.776    174.76195   -38643.538    11462.378 
  153000    299.95651   -38478.558    178.82267   -38657.381    15304.539 
  153200    289.74204   -38463.824     172.7332   -38636.557   -4216.9636 
  153400    265.63217   -38496.429    158.35981   -38654.788   -4405.2305 
  153600    291.68273   -38475.705    173.89016   -38649.595   -1973.3573 
  153800    294.50181   -38455.026    175.57079   -38630.597   -7896.2568 
  154000    278.88286   -38478.274    166.25937   -38644.533   -13699.696 
  154200    272.34692   -38489.748    162.36289   -38652.111   -6571.6977 
  154400      300.897   -38463.821    179.38336   -38643.204     -824.375 
  154600    285.09903   -38460.418    169.96521   -38630.383   -6526.7849 
  154800     270.5595   -38496.973     161.2973    -38658.27   -7108.2209 
  155000    293.72765   -38471.989    175.10927   -38647.099   -2232.4259 
  155200    299.92482    -38467.34    178.80378   -38646.144    3287.7876 
  155400    263.70365   -38495.228     157.2101   -38652.438   -3061.1186 
  155600    278.19722   -38471.879    165.85061    -38637.73   -4239.8448 
  155800    304.34612   -38461.719     181.4396   -38643.158    5689.5346 
  156000     269.3421   -38486.398    160.57152    -38646.97    2925.4654 
  156200    278.11541   -38490.946    165.80184   -38656.748    658.87151 
  156400    313.20122   -38455.807    186.71867   -38642.526   -5250.3882 
  156600    304.34831   -38474.489     181.4409    -38655.93   -10799.345 
  156800    301.82451   -38486.495     179.9363   -38666.431   -3620.1177 
  157000    324.39196   -38449.181    193.39016   -38642.572   -9346.2036 
  157200    303.22819    -38476.81    180.77313   -38657.584   -12068.366 
  157400    303.44627   -38469.623    180.90314   -38650.526   -7964.2157 
  157600    322.51772   -38446.791    192.27281   -38639.063   -10296.168 
  157800    307.49794   -38471.168    183.31859   -38654.486   -2812.9531 
  158000    316.90394    -38469.82    188.92609   -38658.746   -7867.1912 
  158200    338.58724   -38435.272    201.85285   -38637.125    1190.6604 
  158400    313.93627   -38471.482    187.15688   -38658.639    7969.2726 
  158600    276.84428   -38469.873    165.04404   -38634.917    2942.8376 
  158800    321.01515   -38453.789    191.37704   -38645.166    1950.1481 
  159000    273.80911   -38487.923    163.23459   -38651.157    2768.9713 
  159200    292.06265   -38464.036    174.11666   -38638.153    1885.5611 
  159400    307.28618   -38458.315    183.19235   -38641.507    -3949.943 
  159600    308.75455   -38468.477    184.06773   -38652.545   -5366.0081 
  159800    283.25742   -38498.489    168.86731   -38667.356    5380.6283 
  160000    330.82846   -38460.215    197.22736   -38657.443    -5384.089 
  160200    295.68482   -38467.713    176.27606   -38643.989   -11627.101 
  160400    279.13063   -38491.242    166.40707   -38657.649   -8530.1596 
  160600    284.64753   -38458.461    169.69604   -38628.157    3894.0763 
  160800    273.17434     -38464.1    162.85616   -38626.956   -7747.4816 
  161000    275.87069   -38495.454    164.46362   -38659.918   -1749.6841 
  161200    278.47453   -38491.319    166.01593   -38657.335   -6192.6035 
  161400    305.36299   -38461.557    182.04582   -38643.603    2811.1986 
  161600    302.96134   -38465.901    180.61404   -38646.515   -10962.866 
  161800    275.13435   -38497.661    164.02465   -38661.685   -2817.2923 
  162000    297.26297   -38464.103    177.21689    -38641.32   -7362.7931 
  162200    318.35437   -38464.711    189.79078   -38654.502   -8279.6186 
  162400    270.60926   -38495.293    161.32696    -38656.62   -8337.5107 
  162600    301.03332   -38463.786    179.46463    -38643.25   -5096.8964 
  162800    288.64962   -38471.865    172.08194   -38643.947    3424.3309 
  163000    331.73521   -38464.913    197.76793   -38662.681    6491.0573 
  163200    308.28648    -38459.99    183.78868   -38643.779    8300.4464 
  163400    278.55026   -38486.924    166.06109   -38652.986    4153.4152 
  163600    296.29864   -38469.095    176.64199   -38645.737    1675.1983 
  163800    332.29877   -38450.301     198.1039   -38648.405    966.43088 
  164000    276.25582   -38480.593    164.69322   -38645.286    4717.9179 
  164200    301.27609   -38456.255    179.60936   -38635.864   -1430.1025 
  164400    352.34642    -38421.53    210.05555   -38631.585   -7831.1812 
  164600    287.06435   -38465.322    171.13686   -38636.459   -11579.584 
  164800    268.38848   -38481.865    160.00301   -38641.868   -10795.368 
  165000    296.29825   -38456.469    176.64176   -38633.111   -1158.7949 
  165200    327.28879   -38444.289    195.11714   -38639.406   -1246.9372 
  165400    288.48974   -38484.089    171.98663   -38656.076    6134.2686 
  165600     303.6145   -38463.084    181.00343   -38644.087    7512.5952 
  165800    321.51787   -38459.291    191.67674   -38650.968    1144.5781 
  166000    279.01258    -38487.25     166.3367   -38653.587    4281.7556 
  166200    326.26846   -38453.283    194.50886   -38647.792    14603.498 
  166400    303.73989   -38459.524    181.07818   -38640.603    11665.737 
  166600    307.87046   -38480.501    183.54067   -38664.042    6432.1671 
  166800    303.66771   -38466.989    181.03516   -38648.024    -2958.393 
  167000    297.82926   -38449.926    177.55449   -38627.481   -6500.6524 
  167200    320.24961   -38480.674    190.92065   -38671.595    -454.9153 
  167400    312.01085   -38469.003    186.00902   -38655.012    2694.3446 
  167600     319.8776   -38449.221    190.69887    -38639.92    9757.7254 
  167800     278.1537   -38473.924    165.82467   -38639.749    9285.3296 
  168000    289.62365   -38463.031    172.66262   -38635.694    7008.2109 
  168200    325.25391   -38445.043    193.90403   -38638.947    14950.283 
  168400    286.59095   -38479.897    170.85464   -38650.752    11284.174 
  168600    313.25685   -38468.999    186.75183    -38655.75    1744.2455 
  168800    305.12395   -38452.805    181.90331   -38634.708    4454.2779 
  169000    292.89718   -38472.846    174.61417    -38647.46    3831.7992 
  169200    264.31795   -38505.789    157.57632   -38663.366    2265.1299 
  169400    307.63938   -38465.051    183.40291   -38648.454    3644.7436 
  169600    320.63351   -38465.306    191.14952   -38656.456     4051.712 
  169800    293.57032   -38487.829    175.01547   -38662.845    3841.1254 
  170000    308.41011   -38455.352    183.86239   -38639.215    1729.5468 
  170200    328.45257   -38466.148    195.81095   -38661.959   -3319.3251 
  170400    282.03253   -38484.095    168.13708   -38652.232   -9724.4115 
  170600    299.19658   -38469.778    178.36963   -38648.148    -8263.316 
  170800    331.16823    -38432.65    197.42992    -38630.08   -5241.1034 
  171000    318.67713   -38449.918     189.9832   -38639.901     553.4497 
  171200    272.42804   -38477.517    162.41125   -38639.928    11865.411 
  171400    301.47684    -38472.38    179.72904   -38652.109    13761.648 
  171600     314.8688   -38451.607    187.71281    -38639.32    6982.3915 
  171800    279.52146   -38492.181    166.64007   -38658.821    2770.2872 
  172000    318.25441   -38468.504    189.73119   -38658.235   -7500.7056 
  172200    304.42275   -38468.827    181.48528   -38650.312    517.87259 
  172400    267.42549   -38502.057    159.42892   -38661.486    62.585269 
  172600    300.15561   -38469.113    178.94137   -38648.054   -3439.7102 
  172800    320.72565   -38459.926    191.20445    -38651.13   -8345.5913 
  173000    303.41508   -38474.172    180.88455   -38655.056   -3326.4175 
  173200    320.41362   -38482.872    191.01843   -38673.891   -1165.7463 
  173400    308.33422   -38443.436    183.81715   -38627.253     5430.962 
  173600    308.13123   -38473.875    183.69613   -38657.572    1513.8935 
  173800    295.91261   -38473.889    176.41186   -38650.301   -6763.3762 
  174000    330.82789   -38451.858    197.22702   -38649.085    2791.6263 
  174200    295.50403   -38474.414    176.16828   -38650.582    11046.245 
  174400    297.91295   -38473.614    177.60438   -38651.219    6469.4326 
  174600    308.43023   -38447.322    183.87439   -38631.197    1035.5406 
  174800    292.72421   -38485.449    174.51105    -38659.96     2425.961 
  175000    292.71757   -38474.273     174.5071    -38648.78   -2889.9099 
  175200    306.40365   -38447.958    182.66621   -38630.624    478.13911 
  175400      298.153   -38456.104    177.74749   -38633.852    12035.739 
  175600     279.2463   -38481.449    166.47603   -38647.925    5594.4222 
  175800    300.87167   -38456.418    179.36826   -38635.786     998.1529 
  176000    303.06826   -38453.406    180.67778   -38634.084   -4003.3859 
  176200    324.57153   -38473.516    193.49722   -38667.013   -5299.9832 
  176400    309.12674   -38464.355    184.28962   -38648.645    1273.7996 
  176600    314.46875   -38462.457    187.47432   -38649.931    6346.4101 
  176800    294.77117   -38475.925    175.73137   -38651.656    2308.5769 
  177000    304.80651   -38488.972    181.71406   -38670.686   -2091.5962 
  177200     311.7688   -38452.248    185.86472   -38638.112   -831.14886 
  177400    284.32638    -38475.08    169.50458   -38644.584   -7933.4457 
  177600    282.28752   -38492.236    168.28909   -38660.526   -14378.822 
  177800    287.43024   -38472.529    171.35499   -38643.884   -17342.188 
  178000    304.07531    -38458.68    181.27815   -38639.959   -7323.5693 
  178200    332.39697   -38436.884    198.16245   -38635.046   -1048.2553 
  178400    273.79474   -38477.309    163.22602   -38640.535    9819.3627 
  178600    303.23504   -38459.695    180.77721   -38640.472    10358.435 
  178800    299.78102   -38473.107    178.71805   -38651.825     11651.61 
  179000     272.2685   -38482.822    162.31614   -38645.138    1960.9554 
  179200    300.60505   -38458.978    179.20931   -38638.188     4916.779 
  179400    267.47916   -38486.585    159.46092   -38646.045    4992.5036 
  179600    278.96545   -38478.354     166.3086   -38644.663    4753.3816 
  179800    305.07321   -38465.401    181.87306   -38647.274    2866.3937 
  180000    294.72559   -38472.179     175.7042   -38647.883    764.53245 
  180200    288.88606   -38457.789    172.22289   -38630.012    1083.4507 
  180400    321.19126   -38452.728    191.48203    -38644.21   -5339.9199 
  180600    308.43908   -38482.622    183.87966   -38666.502   -9750.6841 
  180800    303.25785   -38465.508    180.79081   -38646.298    7814.9661 
  181000    328.59893   -38451.181     195.8982   -38647.079   -2829.5851 
  181200    286.11881    -38479.32    170.57316   -38649.893    -4448.539 
[...]
  950000    299.90801   -38486.785    178.79376   -38665.579   -12345.212 
  950200    314.20757   -38452.117    187.31861   -38639.436   -7319.1393 
  950400    315.88184   -38465.116    188.31675   -38653.433    3388.6846 
  950600    313.42726   -38475.904    186.85343   -38662.758    8870.6315 
  950800    270.71641   -38474.358    161.39084   -38635.749    4733.8204 
  951000    321.09322   -38455.199    191.42358   -38646.622    1202.2032 
  951200    267.25089    -38485.96    159.32483   -38645.285    2885.8565 
  951400    304.73442   -38474.185    181.67108   -38655.856    6753.2706 
  951600    313.42859   -38454.769    186.85422   -38641.623    7977.8703 
  951800    288.64464    -38483.83    172.07897   -38655.909    4105.2321 
  952000    300.35057   -38466.883     179.0576    -38645.94    -7146.237 
  952200    299.15374    -38444.86    178.34409   -38623.205    -4499.458 
  952400    277.41316   -38470.345    165.38318   -38635.728   -3922.4817 
  952600    277.71258   -38481.687    165.56169   -38647.249   -10058.173 
  952800    253.17828   -38502.781    150.93527   -38653.717   -386.49873 
  953000    324.55199   -38465.394    193.48556    -38658.88   -6212.7119 
  953200    316.12997   -38471.076    188.46468    -38659.54   -488.74783 
  953400    292.85602    -38488.78    174.58963    -38663.37    6584.1613 
  953600    303.93113   -38455.661    181.19219   -38636.854    5408.6098 
  953800    283.45346   -38485.358    168.98419   -38654.342    4983.9843 
  954000    326.72696   -38463.706     194.7822   -38658.488    4219.5974 
  954200    312.84699    -38469.49    186.50749   -38655.998    4814.7951 
  954400    306.30036   -38470.777    182.60464   -38653.381    4764.1067 
  954600    311.38743   -38464.592    185.63736    -38650.23    920.21734 
  954800    282.33867   -38474.663    168.31959   -38642.982   -3276.5958 
  955000    288.33289   -38485.087    171.89311    -38656.98    -1887.496 
  955200    323.50244   -38449.897    192.85987   -38642.757    1845.1067 
  955400     303.4612   -38472.805    180.91204   -38653.717    3889.1139 
  955600    311.46336   -38474.605    185.68262   -38660.288   -1940.4877 
  955800    314.13167   -38468.569    187.27337   -38655.842   -382.83878 
  956000     336.9619   -38440.592    200.88388   -38641.476   -111.65786 
  956200    319.90497   -38472.425    190.71519    -38663.14   -1771.8487 
  956400    288.68105   -38478.791    172.10068   -38650.891   -2716.3919 
  956600    313.55303   -38451.317     186.9284   -38638.246    2033.1745 
  956800    346.79188    -38434.31    206.74415   -38641.055     2257.904 
  957000    278.19595   -38478.643    165.84986   -38644.493    4219.9519 
  957200     319.0213    -38462.87    190.18838   -38653.058    3473.8469 
  957400    329.17965   -38447.256     196.2444   -38643.501     -1397.57 
  957600    280.80487   -38481.799    167.40519   -38649.204   -2370.6759 
  957800    296.52999   -38467.086    176.77992   -38643.866   -11788.635 
  958000    292.05042   -38444.164    174.10936   -38618.273   -8520.5818 
  958200    289.80716   -38477.144    172.77202   -38649.916    -88.55921 
  958400    276.20222   -38479.019    164.66127    -38643.68    8161.0229 
  958600    323.06496   -38450.598    192.59906   -38643.197   -4172.6672 
  958800    300.60818   -38467.947    179.21117   -38647.158   -7091.2307 
  959000     301.0571   -38469.688     179.4788   -38649.167   -11847.903 
  959200    293.28102   -38490.173      174.843   -38665.016    3132.2303 
  959400    313.86916   -38472.264    187.11687   -38659.381   -2533.1295 
  959600    307.85662   -38464.156    183.53242   -38647.689   -3348.0844 
  959800    310.84332   -38493.789    185.31298   -38679.102   -699.01207 
  960000    290.24456   -38489.113    173.03278   -38662.146    2235.9951 
  960200    321.20524   -38465.141    191.49036   -38656.632   -4223.7714 
  960400    295.62073   -38481.265    176.23785   -38657.503     5521.929 
  960600    311.26787    -38493.49    185.56608   -38679.056    7371.7216 
  960800    305.76442   -38454.423    182.28513   -38636.708    480.95913 
  961000     306.4838   -38467.982      182.714   -38650.696    1977.8046 
  961200    293.05584   -38487.219    174.70876   -38661.928    12493.443 
  961400    297.32618   -38469.333    177.25457   -38646.588    16612.945 
  961600    316.58084   -38454.416    188.73347    -38643.15   -1.3361609 
  961800     276.9138   -38482.535    165.08549    -38647.62    -11895.95 
  962000    299.70051   -38461.969    178.67006   -38640.639   -9710.5558 
  962200    290.01149     -38475.1    172.89383   -38647.993    4447.4749 
  962400    273.54611   -38487.166     163.0778   -38650.244    6480.5827 
  962600    315.49075   -38459.805     188.0836   -38647.889   -3522.6825 
  962800    313.43114   -38477.875    186.85574   -38664.731   -7616.9456 
  963000    297.87298   -38490.348    177.58055   -38667.929     5460.902 
  963200    310.31632   -38471.701     184.9988     -38656.7   -2634.0188 
  963400    307.72643   -38466.148     183.4548   -38649.603   -5287.5528 
  963600    302.88003   -38475.427    180.56557   -38655.993   -7879.1364 
  963800    291.80497    -38471.17    173.96304   -38645.133   -4450.1603 
  964000    306.45175   -38451.431    182.69489   -38634.126    9100.2554 
  964200    295.82558    -38475.38    176.35997    -38651.74    3761.3503 
  964400    269.07848   -38480.478    160.41437   -38640.893    8500.9829 
  964600    297.54455   -38453.103    177.38476   -38630.488    9676.8426 
  964800     310.9012    -38467.34    185.34749   -38652.688    11455.276 
  965000    297.74219   -38465.811    177.50258   -38643.313    5568.6179 
  965200    270.19789   -38498.036    161.08171   -38659.117    1295.5407 
  965400    301.85602   -38474.946    179.95509   -38654.901    9794.9381 
  965600    320.19631    -38459.89    190.88887   -38650.779    2039.3694 
  965800      299.764   -38490.595    178.70791   -38669.303   -4429.1715 
  966000    304.18067   -38489.077    181.34096   -38670.418   -4927.8927 
  966200    318.67773   -38465.173    189.98356   -38655.157   -2128.4291 
  966400    294.60623   -38471.018    175.63304   -38646.651    2793.5842 
  966600    279.00535   -38489.862    166.33239   -38656.194   -497.06436 
  966800    310.18014   -38458.168    184.91761   -38643.085    3507.8577 
  967000    306.90931   -38469.684    182.96767   -38652.652     1493.065 
  967200    313.61232   -38463.695    186.96375   -38650.659     7877.345 
  967400    282.57568   -38480.363    168.46089   -38648.824    10171.886 
  967600    302.56571   -38474.786    180.37818   -38655.165    7544.9765 
  967800    318.15459   -38450.872    189.67168   -38640.544     357.0206 
  968000    292.70147   -38468.946    174.49749   -38643.444   -7395.6681 
  968200    288.80325   -38472.838    172.17352   -38645.011   -12888.399 
  968400    293.31001    -38457.72    174.86028    -38632.58   -3092.5481 
  968600    325.57533   -38464.718    194.09565   -38658.814   -7567.5897 
  968800    290.27283   -38482.417    173.04963   -38655.467   -13479.672 
  969000    292.03506   -38464.037    174.10021   -38638.137   -14100.304 
  969200    333.58641   -38421.031    198.87155   -38619.903    11935.297 
  969400    299.68837   -38463.842    178.66282   -38642.505    2051.3717 
  969600    316.11727   -38472.793    188.45711    -38661.25    5904.2163 
  969800    322.40795   -38456.095    192.20737   -38648.302    6924.5409 
  970000    298.66624   -38469.127    178.05347    -38647.18    11945.651 
  970200    294.58825   -38478.474    175.62232   -38654.096    16080.686 
  970400    308.95325   -38463.282    184.18619   -38647.468     1822.962 
  970600     279.6726   -38471.752    166.73018   -38638.482    1550.5432 
  970800    276.30292   -38510.352    164.72131   -38675.074    4779.9826 
  971000    291.61209   -38474.612    173.84805    -38648.46    6146.5149 
  971200    295.07552   -38455.787    175.91281     -38631.7    2147.0846 
  971400    287.78387   -38491.665    171.56581   -38663.231    -5590.087 
  971600    310.16888   -38474.955    184.91091   -38659.865   -1477.2621 
  971800    298.16268   -38469.821    177.75326   -38647.575   -7414.7391 
  972000    314.57765   -38457.941    187.53925   -38645.481    6819.1332 
  972200    262.38916   -38492.439    156.42645   -38648.865    14834.272 
  972400    299.56773   -38469.613     178.5909   -38648.204     6185.199 
  972600    309.27542    -38461.89    184.37826   -38646.268   -2452.0275 
  972800     288.3659   -38472.297    171.91279    -38644.21    -2286.466 
  973000    301.01436   -38478.699    179.45333   -38658.152    1495.7312 
  973200    311.14376   -38445.951    185.49209   -38631.444    4818.3338 
  973400    268.31645   -38480.816    159.96007   -38640.776   -9568.4611 
  973600    272.69011   -38481.871    162.56749   -38644.438     412.0272 
  973800    334.08359    -38452.84    199.16795   -38652.008    7377.5137 
  974000    273.40868    -38489.79    162.99587   -38652.786    1623.4198 
  974200    307.17726   -38475.356    183.12741   -38658.483   -7377.7863 
  974400    327.09587   -38451.406    195.00213   -38646.409   -627.47665 
  974600    313.73257   -38466.341    187.03544   -38653.377    7759.1998 
  974800     289.4383   -38478.409    172.55212   -38650.961   -4458.4907 
  975000    289.46014    -38449.96    172.56514   -38622.525   -17134.562 
  975200    304.70918   -38460.226    181.65604   -38641.882   -2648.4742 
  975400    302.13164   -38470.275    180.11941   -38650.394   -715.66465 
  975600    280.43902   -38468.835    167.18709   -38636.022    1487.2106 
  975800    302.08782   -38464.531    180.09328   -38644.624    241.97997 
  976000    279.53029   -38485.634    166.64534   -38652.279   -5058.9332 
  976200    314.83244   -38466.267    187.69114   -38653.959      -4326.5 
  976400    311.41527   -38469.062    185.65395   -38654.716    4447.8512 
  976600     296.2818   -38478.786    176.63195   -38655.418    5930.3314 
  976800    312.57681   -38462.863    186.34642   -38649.209   -1044.2947 
  977000    314.11616   -38461.964    187.26412   -38649.228    7971.3957 
  977200    302.64992   -38485.269    180.42839   -38665.697   -4327.6681 
  977400      295.153   -38475.641    175.95901     -38651.6   -11640.473 
  977600    301.19273   -38461.682    179.55966   -38641.242   -14061.356 
  977800    292.16564   -38476.337    174.17806   -38650.516   -5936.0374 
  978000    261.92526   -38509.155    156.14989   -38665.305   -776.06195 
  978200    312.37481   -38474.649      186.226   -38660.875    7726.7539 
  978400    319.57687   -38453.556    190.51959   -38644.076    8331.1303 
  978600    291.12099   -38489.551    173.55527   -38663.106    5780.8479 
  978800    294.05641   -38479.351    175.30526   -38654.656    8975.0677 
  979000    286.35873   -38462.228     170.7162   -38632.944    10918.908 
  979200    277.17438   -38497.489    165.24084    -38662.73   -345.06364 
  979400     297.6321   -38475.555    177.43695   -38652.992   -269.73393 
  979600    305.85737   -38466.027    182.34055   -38648.367   -5428.0964 
  979800    333.07529   -38440.469    198.56683   -38639.035   -13132.862 
  980000     310.9731   -38476.183    185.39035   -38661.574   -15593.047 
  980200    285.53365   -38470.588    170.22432   -38640.812   -5002.1903 
  980400    310.77737   -38454.114    185.27366   -38639.388    1699.9716 
  980600     293.7483   -38488.927    175.12157   -38664.048    3126.1065 
  980800    306.11524   -38459.385    182.49427    -38641.88    -3161.442 
  981000    301.81481   -38458.802    179.93052   -38638.732   -4475.4809 
  981200    292.01271   -38476.101    174.08689   -38650.188    106.06645 
  981400    326.40303   -38453.299    194.58909   -38647.888    7497.1293 
  981600     292.5939   -38457.721    174.43337   -38632.154    8158.7984 
  981800    313.08862   -38473.921    186.65154   -38660.573    8579.5448 
  982000    290.29139   -38473.094     173.0607   -38646.155    21565.463 
  982200    335.98465   -38440.547    200.30128   -38640.849    10051.849 
  982400    308.08363   -38470.811    183.66776   -38654.479      1688.34 
  982600    281.67744   -38478.887    167.92539   -38646.813    8440.2777 
  982800    329.61784   -38434.904    196.50564    -38631.41   -1702.9224 
  983000    291.32267   -38467.837    173.67551   -38641.513   -4771.6315 
  983200    279.04674   -38478.625    166.35707   -38644.982    2090.2664 
  983400    307.48836   -38445.151    183.31288   -38628.464    6366.3131 
  983600     309.7695   -38463.454    184.67281   -38648.127    3448.9238 
  983800      274.446   -38486.472    163.61428   -38650.087    4609.1981 
  984000    321.00711   -38455.592    191.37224   -38646.964   -1458.7375 
  984200    319.33675   -38462.539    190.37644   -38652.915    2635.3678 
  984400    283.31197   -38481.459    168.89983   -38650.359    14192.592 
  984600    307.19427   -38471.108    183.13756   -38654.246    7530.4774 
  984800    300.90976   -38472.713    179.39097   -38652.104    -3728.578 
  985000    312.97282   -38449.788     186.5825    -38636.37    958.71044 
  985200    300.30954   -38473.089    179.03314   -38652.122    2138.3437 
  985400     306.0122   -38474.249    182.43285   -38656.682     3156.243 
  985600    312.79625   -38455.991    186.47724   -38642.468    8309.6316 
  985800    283.50285    -38489.42    169.01363   -38658.434    625.79176 
  986000    293.79124   -38461.377    175.14718   -38636.524    4832.3772 
  986200    317.65349   -38462.193    189.37294   -38651.566   -779.08644 
  986400    276.32901   -38487.443    164.73686    -38652.18     8870.098 
  986600     266.6346   -38504.487    158.95742   -38663.444    7075.3339 
  986800    294.47102   -38472.981    175.55244   -38648.533    -13952.47 
  987000    316.21497   -38454.414    188.51535    -38642.93   -10972.443 
  987200    296.06969   -38492.173     176.5055   -38668.679    14.466373 
  987400    280.06761   -38480.222    166.96567   -38647.188    3447.1455 
  987600    330.12316    -38464.44    196.80689   -38661.247   -241.59644 
  987800    318.81724   -38474.511    190.06673   -38664.577   -7206.0931 
  988000    297.22454   -38468.479    177.19398   -38645.673   -2363.8207 
  988200    312.81712    -38452.04    186.48968    -38638.53    4839.1751 
  988400    303.75493   -38486.817    181.08715   -38667.904   -16.738015 
  988600    291.28105   -38464.298    173.65069   -38637.949    1813.7432 
  988800    293.01135   -38463.775    174.68223   -38638.457   -15270.881 
  989000    296.79316    -38473.29     176.9368   -38650.227   -11495.413 
  989200    292.62244   -38486.989    174.45038   -38661.439    638.84488 
  989400    314.65154    -38456.21     187.5833   -38643.793    5997.0526 
  989600     278.1075   -38473.895    165.79712   -38639.693    3112.0582 
  989800    316.92832   -38484.793    188.94062   -38673.734   -7816.8331 
  990000    322.95358   -38448.655    192.53266   -38641.188   -1837.3946 
  990200    291.07305   -38480.412     173.5267   -38653.939    9102.3912 
  990400    296.62449    -38475.21    176.83625   -38652.046    12263.145 
  990600      296.137   -38463.571    176.54563   -38640.117   -1495.5694 
  990800    318.10589   -38433.591    189.64265   -38623.234     7104.056 
  991000    288.40819   -38470.424      171.938   -38642.362    3281.8929 
  991200    303.99518   -38479.435    181.23037   -38660.665    6956.8765 
  991400    293.17807    -38481.97    174.78163   -38656.751    1657.7627 
  991600    307.56114   -38451.022    183.35627   -38634.379   -2669.6949 
  991800    289.54693    -38478.55    172.61688   -38651.167   -1497.4261 
  992000    323.40087   -38473.399    192.79931   -38666.198    3249.9988 
  992200    300.56629   -38473.974     179.1862   -38653.161    8162.3579 
  992400    301.70542   -38451.622    179.86531   -38631.488    5214.7903 
  992600    303.75749   -38476.607    181.08867   -38657.695    2590.0535 
  992800    307.28267   -38470.845    183.19025   -38654.035   -3686.8394 
  993000    277.70209   -38474.909    165.55544   -38640.464   -5881.6728 
  993200    276.18616   -38508.036     164.6517   -38672.688   -10793.712 
  993400    304.40768   -38470.296    181.47629   -38651.772   -16543.902 
  993600     317.1509   -38465.849    189.07332   -38654.922   -7047.0005 
  993800    271.98303   -38488.882    162.14595   -38651.028    3002.3603 
  994000    324.71614   -38461.519    193.58343   -38655.103    2963.2408 
  994200    299.45972   -38471.297    178.52651   -38649.823     9019.603 
  994400    263.83371   -38485.435    157.28763   -38642.723    5753.0502 
  994600    337.72148   -38443.659    201.33671   -38644.996    10319.811 
  994800     291.3492   -38479.541    173.69133   -38653.232    3579.1795 
  995000    315.77254   -38463.563    188.25159   -38651.815    2991.2296 
  995200    337.53588   -38462.272    201.22607   -38663.498   -756.34881 
  995400    298.14753   -38481.104    177.74423   -38658.848    13062.965 
  995600    312.03202     -38457.8    186.02164   -38643.822    10483.544 
  995800    285.65202    -38485.45    170.29488   -38655.744      220.871 
  996000     287.7616   -38474.829    171.55253   -38646.382    339.82347 
  996200    336.26024   -38443.025    200.46558   -38643.491   -1821.9741 
  996400    299.55346    -38464.06    178.58239   -38642.642   -823.69953 
  996600    283.25037   -38479.546    168.86311   -38648.409    2963.1435 
  996800    328.75896   -38450.932     195.9936   -38646.925   -2693.7793 
  997000    280.29405   -38470.359    167.10067    -38637.46   -8973.2333 
  997200    275.61472   -38476.467    164.31102   -38640.778   -10201.133 
  997400    292.11045   -38460.833    174.14515   -38634.978   -2247.5123 
  997600    332.07367   -38433.342    197.96971   -38631.312    8710.7744 
  997800    288.52594   -38476.893    172.00821   -38648.901    10713.781 
  998000     296.0692   -38460.864    176.50521   -38637.369    10522.287 
  998200    297.59195   -38465.144    177.41302   -38642.557     6147.217 
  998400     282.9548   -38484.042     168.6869   -38652.729    4347.8204 
  998600    295.51573   -38449.932    176.17525   -38626.107   -4660.8803 
  998800    280.64731   -38466.797    167.31126   -38634.108   -5804.2893 
  999000    290.40814   -38482.663     173.1303   -38655.793   -1063.6705 
  999200    275.74176   -38500.088    164.38676   -38664.474    39.203812 
  999400    299.16077   -38464.834    178.34829   -38643.182    2391.4086 
  999600    289.74088   -38470.756     172.7325   -38643.488   -4237.0023 
  999800    285.49213   -38494.113    170.19956   -38664.313    5393.4479 
 1000000    315.40208   -38455.716    188.03074   -38643.747    11591.188 
Loop time of 13180.2 on 8 procs for 1000000 steps with 201 atoms

Performance: 1.639 ns/day, 14.645 hours/ns, 75.871 timesteps/s
99.1% CPU use with 8 MPI tasks x no OpenMP threads

MPI task timing breakdown:
Section |  min time  |  avg time  |  max time  |%varavg| %total
---------------------------------------------------------------
Pair    | 12104      | 12217      | 12407      |  74.5 | 92.69
Neigh   | 0          | 0          | 0          |   0.0 |  0.00
Comm    | 56.986     | 247.89     | 360.31     | 523.3 |  1.88
Output  | 0.10727    | 0.12005    | 0.19487    |   8.2 |  0.00
Modify  | 707.84     | 708.4      | 709.01     |   1.8 |  5.37
Other   |            | 7.105      |            |       |  0.05

Nlocal:    25.125 ave 29 max 22 min
Histogram: 1 0 3 0 0 3 0 0 0 1
Nghost:    1486.88 ave 1492 max 1482 min
Histogram: 1 1 1 0 1 0 1 0 2 1
Neighs:    7805.25 ave 8918 max 6893 min
Histogram: 1 0 3 0 0 3 0 0 0 1

Total # of neighbors = 62442
Ave neighs/atom = 310.657
Neighbor list builds = 0
Dangerous builds = 0

Please see the log.cite file for references relevant to this simulation

Total wall time: 3:40:57
