ITEM: TIMESTEP
0
ITEM: NUMBER OF ATOMS
145
ITEM: BOX BOUNDS pp pp pp
0.0000000000000000e+00 2.1884000000000000e+01
0.0000000000000000e+00 2.1885999999999999e+01
0.0000000000000000e+00 2.1885000000000002e+01
ITEM: ATOMS id type x y z 
9 1 8.524 12.547 12.547 
10 1 1.604 19.466 19.466 
11 1 1.605 19.466 12.547 
12 1 8.524 12.547 19.466 
13 1 1.605 12.547 19.466 
14 1 8.524 19.467 12.547 
15 1 8.524 19.467 19.466 
16 1 1.605 12.547 12.547 
25 1 10.105 10.965 10.965 
26 1 0.023 21.047 21.049 
27 1 0.023 21.047 10.964 
28 1 10.106 10.965 21.047 
29 1 0.023 10.966 21.048 
30 1 10.106 21.049 10.966 
31 1 10.106 21.048 21.049 
32 1 0.024 10.965 10.965 
57 1 5.811 12.218 12.218 
58 1 4.317 19.796 19.795 
59 1 4.318 19.795 12.218 
60 1 5.811 12.219 19.795 
61 1 4.318 12.218 19.795 
62 1 5.811 19.795 12.218 
63 1 5.811 19.796 19.795 
64 1 4.318 12.218 12.218 
65 1 8.853 15.26 12.218 
66 1 1.276 16.754 19.795 
67 1 8.853 16.754 19.795 
68 1 1.276 15.26 12.218 
69 1 1.276 16.754 12.218 
70 1 8.853 15.26 19.796 
71 1 1.276 15.26 19.795 
72 1 8.853 16.753 12.218 
73 1 8.853 12.219 15.26 
74 1 1.276 19.795 16.753 
75 1 1.276 12.218 16.754 
76 1 8.853 19.796 15.26 
77 1 8.853 19.796 16.753 
78 1 1.276 12.218 15.26 
79 1 1.276 19.795 15.26 
80 1 8.853 12.219 16.754 
105 1 7.01 12.317 12.317 
106 1 3.118 19.696 19.696 
107 1 3.119 19.696 12.317 
108 1 7.011 12.317 19.696 
109 1 3.119 12.317 19.696 
110 1 7.01 19.696 12.317 
111 1 7.01 19.697 19.696 
112 1 3.118 12.317 12.317 
113 1 8.754 14.061 12.317 
114 1 1.375 17.953 19.696 
115 1 8.754 17.953 19.696 
116 1 1.375 14.061 12.317 
117 1 1.375 17.953 12.317 
118 1 8.754 14.061 19.696 
119 1 1.375 14.061 19.696 
120 1 8.754 17.953 12.317 
121 1 8.754 12.317 14.061 
122 1 1.375 19.696 17.952 
123 1 1.375 12.317 17.953 
124 1 8.754 19.697 14.061 
125 1 8.754 19.697 17.952 
126 1 1.375 12.317 14.061 
127 1 1.375 19.696 14.061 
128 1 8.754 12.318 17.953 
137 1 9.407 11.664 11.664 
138 1 0.721 20.349 20.35 
139 1 0.721 20.349 11.663 
140 1 9.408 11.664 20.349 
141 1 0.721 11.664 20.35 
142 1 9.407 20.35 11.664 
143 1 9.407 20.35 20.35 
144 1 0.722 11.664 11.663 
1 1 19.466 1.604 1.604 
2 1 12.547 8.524 8.524 
3 1 12.546 8.524 1.604 
4 1 19.466 1.605 8.524 
5 1 12.547 1.604 8.524 
6 1 19.466 8.524 1.605 
7 1 19.466 8.524 8.524 
8 1 12.547 1.604 1.605 
17 1 21.048 0.023 0.022 
18 1 10.965 10.106 10.106 
19 1 10.965 10.106 0.024 
20 1 21.048 0.024 10.107 
21 1 10.965 0.022 10.105 
22 1 21.048 10.105 0.023 
23 1 21.047 10.106 10.106 
24 1 10.965 0.023 0.022 
33 1 16.753 1.275 1.276 
34 1 15.26 8.853 8.853 
35 1 15.26 8.852 1.276 
36 1 16.753 1.275 8.853 
37 1 15.26 1.275 8.853 
38 1 16.753 8.852 1.276 
39 1 16.753 8.853 8.853 
40 1 15.26 1.275 1.276 
41 1 19.795 4.317 1.276 
42 1 12.218 5.811 8.853 
43 1 19.795 5.811 8.853 
44 1 12.218 4.317 1.276 
45 1 12.218 5.811 1.275 
46 1 19.795 4.317 8.853 
47 1 12.218 4.317 8.853 
48 1 19.795 5.811 1.276 
49 1 19.795 1.275 4.317 
50 1 12.218 8.852 5.811 
51 1 12.218 1.276 5.811 
52 1 19.795 8.853 4.318 
53 1 19.795 8.853 5.811 
54 1 12.218 1.275 4.318 
55 1 12.218 8.852 4.317 
56 1 19.795 1.275 5.811 
81 1 17.952 1.374 1.375 
82 1 14.061 8.754 8.754 
83 1 14.06 8.753 1.375 
84 1 17.952 1.374 8.754 
85 1 14.06 1.374 8.754 
86 1 17.952 8.754 1.375 
87 1 17.952 8.754 8.754 
88 1 14.061 1.374 1.375 
89 1 19.696 3.118 1.375 
90 1 12.317 7.01 8.754 
91 1 19.696 7.01 8.754 
92 1 12.317 3.118 1.375 
93 1 12.317 7.01 1.374 
94 1 19.695 3.118 8.754 
95 1 12.317 3.118 8.754 
96 1 19.696 7.01 1.375 
97 1 19.696 1.374 3.118 
98 1 12.317 8.754 7.01 
99 1 12.317 1.375 7.01 
100 1 19.696 8.754 3.118 
101 1 19.696 8.754 7.01 
102 1 12.317 1.374 3.119 
103 1 12.317 8.753 3.118 
104 1 19.696 1.374 7.01 
129 1 20.35 0.722 0.721 
130 1 11.664 9.407 9.407 
131 1 11.663 9.407 0.722 
132 1 20.35 0.722 9.408 
133 1 11.663 0.72 9.407 
134 1 20.35 9.407 0.721 
135 1 20.349 9.407 9.407 
136 1 11.664 0.721 0.721 
145 2 20.79 1.901 1.564 
ITEM: TIMESTEP
10
ITEM: NUMBER OF ATOMS
145
ITEM: BOX BOUNDS pp pp pp
0.0000000000000000e+00 2.1884000000000000e+01
0.0000000000000000e+00 2.1885999999999999e+01
0.0000000000000000e+00 2.1885000000000002e+01
ITEM: ATOMS id type x y z 
9 1 8.51765 12.5534 12.5531 
10 1 1.60619 19.4635 19.4638 
11 1 1.6102 19.46 12.5527 
12 1 8.51889 12.5527 19.46 
13 1 1.61129 12.553 19.46 
14 1 8.51761 19.4611 12.5532 
15 1 8.51782 19.4609 19.46 
16 1 1.61075 12.5532 12.553 
25 1 10.1055 10.9648 10.9648 
26 1 0.0226215 21.0475 21.0498 
27 1 0.0228312 21.0473 10.9641 
28 1 10.1064 10.9649 21.0476 
29 1 0.0231156 10.9661 21.048 
30 1 10.1062 21.0491 10.9654 
31 1 10.106 21.0484 21.0491 
32 1 0.023456 10.9648 10.9644 
57 1 5.81938 12.2191 12.2192 
58 1 4.30986 19.7948 19.794 
59 1 4.30993 19.7938 12.2191 
60 1 5.81925 12.2199 19.7937 
61 1 4.30954 12.2192 19.7939 
62 1 5.81891 19.7939 12.2191 
63 1 5.81905 19.7949 19.7939 
64 1 4.31014 12.2191 12.2191 
65 1 8.85187 15.2516 12.2192 
66 1 1.27699 16.7602 19.7941 
67 1 8.85184 16.7615 19.794 
68 1 1.2771 15.2524 12.2191 
69 1 1.27704 16.7607 12.219 
70 1 8.85195 15.2523 19.7946 
71 1 1.27706 15.2521 19.7939 
72 1 8.85188 16.7609 12.2191 
73 1 8.85181 12.22 15.252 
74 1 1.27702 19.7939 16.7604 
75 1 1.27713 12.2191 16.7618 
76 1 8.85188 19.7949 15.252 
77 1 8.85192 19.7949 16.7608 
78 1 1.27711 12.2191 15.2525 
79 1 1.27699 19.794 15.2524 
80 1 8.85195 12.2201 16.7612 
105 1 7.00707 12.3161 12.3162 
106 1 3.1238 19.6975 19.6977 
107 1 3.12298 19.6971 12.3157 
108 1 7.00624 12.3156 19.6972 
109 1 3.12218 12.316 19.6969 
110 1 7.00764 19.6971 12.3163 
111 1 7.00745 19.6979 19.6969 
112 1 3.12143 12.316 12.316 
113 1 8.7549 14.0639 12.3162 
114 1 1.37368 17.9494 19.6972 
115 1 8.75488 17.9502 19.6969 
116 1 1.37399 14.0636 12.3162 
117 1 1.37406 17.951 12.3162 
118 1 8.75544 14.065 19.6972 
119 1 1.37406 14.0634 19.6968 
120 1 8.75505 17.9495 12.3159 
121 1 8.75489 12.3162 14.0638 
122 1 1.3732 19.6973 17.9468 
123 1 1.37407 12.3161 17.95 
124 1 8.75475 19.698 14.0634 
125 1 8.75485 19.6979 17.9498 
126 1 1.37398 12.3162 14.0636 
127 1 1.37384 19.6969 14.0631 
128 1 8.75499 12.3171 17.9504 
137 1 9.4103 11.6604 11.6603 
138 1 0.726847 20.3431 20.3446 
139 1 0.718167 20.352 11.66 
140 1 9.41113 11.6605 20.3522 
141 1 0.718254 11.6609 20.3528 
142 1 9.41034 20.3537 11.6609 
143 1 9.41048 20.3532 20.3532 
144 1 0.718645 11.6605 11.6602 
1 1 19.332 1.55852 1.66434 
2 1 12.5531 8.5178 8.51783 
3 1 12.5514 8.51761 1.61048 
4 1 19.4598 1.61158 8.51999 
5 1 12.5523 1.61027 8.51767 
6 1 19.4597 8.51489 1.61005 
7 1 19.4597 8.51823 8.51873 
8 1 12.5561 1.60975 1.61065 
17 1 21.0655 -0.0359586 -0.0266864 
18 1 10.9647 10.1061 10.1061 
19 1 10.9647 10.1062 0.0234959 
20 1 21.0485 0.0233005 10.1073 
21 1 10.9646 0.0215239 10.1055 
22 1 21.0483 10.1056 0.0225726 
23 1 21.0475 10.1061 10.1061 
24 1 10.9647 0.0225216 0.0218977 
33 1 16.7248 1.27365 1.27218 
34 1 15.2521 8.85192 8.85191 
35 1 15.2501 8.8508 1.27713 
36 1 16.7611 1.27614 8.85193 
37 1 15.2514 1.27612 8.85185 
38 1 16.7629 8.85102 1.27734 
39 1 16.7608 8.8519 8.85193 
40 1 15.2491 1.27545 1.27694 
41 1 19.7851 4.37195 1.28682 
42 1 12.2191 5.81888 8.85185 
43 1 19.7939 5.81847 8.85192 
44 1 12.219 4.30948 1.2771 
45 1 12.2192 5.81908 1.27618 
46 1 19.7938 4.31027 8.85209 
47 1 12.2192 4.30909 8.85184 
48 1 19.794 5.81505 1.27112 
49 1 19.7926 1.28145 4.32617 
50 1 12.2192 8.85096 5.81884 
51 1 12.2191 1.27707 5.81939 
52 1 19.7936 8.85189 4.30767 
53 1 19.794 8.85191 5.81956 
54 1 12.219 1.27619 4.3101 
55 1 12.2191 8.85082 4.30923 
56 1 19.7949 1.27276 5.81815 
81 1 17.9261 1.36565 1.36933 
82 1 14.0633 8.75486 8.75483 
83 1 14.0647 8.75429 1.37372 
84 1 17.9482 1.3732 8.75568 
85 1 14.0642 1.37283 8.75515 
86 1 17.9475 8.75587 1.37357 
87 1 17.9498 8.75479 8.75494 
88 1 14.0565 1.37396 1.375 
89 1 19.7016 3.1637 1.34742 
90 1 12.3161 7.00708 8.75485 
91 1 19.6969 7.00737 8.75505 
92 1 12.316 3.12079 1.3742 
93 1 12.3158 7.00699 1.37319 
94 1 19.696 3.11979 8.75527 
95 1 12.3159 3.12091 8.75481 
96 1 19.6955 7.02134 1.37432 
97 1 19.6468 1.34012 3.19233 
98 1 12.3161 8.75477 7.00713 
99 1 12.316 1.37418 7.0075 
100 1 19.6976 8.75674 3.12559 
101 1 19.6971 8.75512 7.0065 
102 1 12.316 1.37315 3.1215 
103 1 12.3158 8.75381 3.12092 
104 1 19.6968 1.37308 7.01215 
129 1 20.3721 0.67546 0.673708 
130 1 11.6604 9.41058 9.41062 
131 1 11.6595 9.41043 0.718527 
132 1 20.3531 0.71884 9.4122 
133 1 11.6599 0.717183 9.4102 
134 1 20.3533 9.41172 0.717284 
135 1 20.3522 9.41055 9.4106 
136 1 11.6602 0.717388 0.717313 
145 2 20.9983 1.98414 1.54259 
ITEM: TIMESTEP
20
ITEM: NUMBER OF ATOMS
145
ITEM: BOX BOUNDS pp pp pp
0.0000000000000000e+00 2.1884000000000000e+01
0.0000000000000000e+00 2.1885999999999999e+01
0.0000000000000000e+00 2.1885000000000002e+01
ITEM: ATOMS id type x y z 
9 1 8.51485 12.5561 12.5561 
10 1 1.61041 19.4604 19.4602 
11 1 1.61359 19.4572 12.5554 
12 1 8.51565 12.5561 19.4573 
13 1 1.6141 12.5557 19.4571 
14 1 8.51489 19.4577 12.5561 
15 1 8.51539 19.458 19.4571 
16 1 1.61377 12.5562 12.556 
25 1 10.1061 10.9643 10.9643 
26 1 0.033793 21.0351 21.0382 
27 1 0.0226046 21.0478 10.9639 
28 1 10.1069 10.9645 21.0482 
29 1 0.0231338 10.9661 21.0481 
30 1 10.1065 21.0496 10.9649 
31 1 10.106 21.0486 21.0491 
32 1 0.0228885 10.9644 10.964 
57 1 5.81746 12.2197 12.2198 
58 1 4.31232 19.7943 19.7937 
59 1 4.31174 19.7933 12.2196 
60 1 5.81757 12.2203 19.7931 
61 1 4.31152 12.2198 19.7934 
62 1 5.81777 19.7933 12.2197 
63 1 5.81876 19.7945 19.7934 
64 1 4.31128 12.2198 12.2197 
65 1 8.8513 15.2535 12.2197 
66 1 1.27748 16.7586 19.7936 
67 1 8.85122 16.7602 19.7934 
68 1 1.27773 15.2539 12.2198 
69 1 1.27773 16.7596 12.2197 
70 1 8.85144 15.2541 19.7939 
71 1 1.27754 15.2528 19.7934 
72 1 8.85126 16.7597 12.2197 
73 1 8.85117 12.2206 15.2539 
74 1 1.27732 19.7936 16.7583 
75 1 1.27771 12.2197 16.7597 
76 1 8.85125 19.7943 15.2536 
77 1 8.8513 19.7943 16.7592 
78 1 1.27776 12.2198 15.2539 
79 1 1.2775 19.7935 15.252 
80 1 8.85129 12.2208 16.7598 
105 1 7.00583 12.3164 12.3165 
106 1 3.12523 19.6975 19.6976 
107 1 3.12369 19.6968 12.316 
108 1 7.00584 12.316 19.6969 
109 1 3.12322 12.3162 19.6967 
110 1 7.00602 19.6969 12.3165 
111 1 7.00689 19.6976 19.6966 
112 1 3.12327 12.3162 12.3162 
113 1 8.75458 14.0652 12.3165 
114 1 1.37359 17.9458 19.6973 
115 1 8.75466 17.9485 19.6966 
116 1 1.37424 14.0654 12.3164 
117 1 1.37412 17.9482 12.3163 
118 1 8.75513 14.0656 19.6968 
119 1 1.37427 14.0642 19.6966 
120 1 8.75477 17.9481 12.3163 
121 1 8.75462 12.3166 14.0654 
122 1 1.37325 19.6972 17.9453 
123 1 1.37429 12.3163 17.9481 
124 1 8.75451 19.6978 14.0651 
125 1 8.75465 19.6976 17.9479 
126 1 1.37417 12.3164 14.0655 
127 1 1.37406 19.6966 14.0635 
128 1 8.75481 12.3173 17.9482 
137 1 9.41129 11.6592 11.6592 
138 1 0.73634 20.3337 20.3353 
139 1 0.716949 20.3532 11.6588 
140 1 9.41232 11.6591 20.3534 
141 1 0.717836 11.6603 20.3533 
142 1 9.41173 20.3547 11.6596 
143 1 9.41142 20.3539 20.3539 
144 1 0.717468 11.6592 11.6589 
1 1 19.332 1.54395 1.72016 
2 1 12.556 8.51485 8.51494 
3 1 12.5532 8.51487 1.61329 
4 1 19.4578 1.6141 8.51708 
5 1 12.555 1.61325 8.515 
6 1 19.4566 8.51389 1.6139 
7 1 19.4567 8.51527 8.51655 
8 1 12.5594 1.61201 1.61282 
17 1 21.0509 -0.0498393 -0.0312303 
18 1 10.9643 10.1066 10.1066 
19 1 10.9639 10.107 0.0225271 
20 1 21.0493 0.0224367 10.1079 
21 1 10.9642 0.0209833 10.1061 
22 1 21.0494 10.1073 0.0212671 
23 1 21.0482 10.1066 10.1064 
24 1 10.9633 0.0214007 0.0210287 
33 1 16.7147 1.27303 1.2667 
34 1 15.2537 8.8513 8.85128 
35 1 15.2516 8.85031 1.27748 
36 1 16.7566 1.27641 8.8517 
37 1 15.2533 1.27655 8.8514 
38 1 16.7589 8.85124 1.27785 
39 1 16.7593 8.85127 8.85128 
40 1 15.2393 1.27391 1.27608 
41 1 19.7757 4.37394 1.29596 
42 1 12.2198 5.81717 8.85121 
43 1 19.7934 5.81699 8.85128 
44 1 12.2193 4.3126 1.27761 
45 1 12.2197 5.81655 1.27667 
46 1 19.7931 4.31189 8.85158 
47 1 12.2198 4.31093 8.85122 
48 1 19.7943 5.83362 1.26794 
49 1 19.791 1.27788 4.34055 
50 1 12.2198 8.85042 5.81714 
51 1 12.2197 1.27758 5.81794 
52 1 19.7933 8.85222 4.31233 
53 1 19.7937 8.85147 5.81873 
54 1 12.2192 1.2768 4.31313 
55 1 12.2197 8.85026 4.31205 
56 1 19.7972 1.27226 5.83351 
81 1 17.9149 1.36013 1.36936 
82 1 14.065 8.75461 8.75459 
83 1 14.0658 8.75424 1.37375 
84 1 17.9488 1.3736 8.75573 
85 1 14.0642 1.37316 8.75481 
86 1 17.9481 8.75667 1.37419 
87 1 17.9478 8.75455 8.75478 
88 1 14.0419 1.37547 1.37686 
89 1 19.7267 3.16644 1.33793 
90 1 12.3164 7.00539 8.75455 
91 1 19.6966 7.00569 8.75492 
92 1 12.3161 3.12331 1.37414 
93 1 12.3158 7.00626 1.37341 
94 1 19.696 3.12307 8.75553 
95 1 12.3161 3.12266 8.75451 
96 1 19.6946 7.02641 1.37379 
97 1 19.5983 1.32895 3.18392 
98 1 12.3163 8.75438 7.00556 
99 1 12.3162 1.37446 7.00625 
100 1 19.6967 8.75729 3.12256 
101 1 19.6968 8.75483 7.00718 
102 1 12.3161 1.37305 3.12413 
103 1 12.3158 8.75362 3.12223 
104 1 19.6956 1.37373 7.02238 
129 1 20.3944 0.687187 0.674922 
130 1 11.6592 9.41165 9.41164 
131 1 11.6582 9.41151 0.717587 
132 1 20.3545 0.717373 9.41396 
133 1 11.6587 0.716128 9.41132 
134 1 20.3547 9.41458 0.71598 
135 1 20.3533 9.41174 9.4121 
136 1 11.6588 0.715684 0.71552 
145 2 21.0432 2.01484 1.49416 
ITEM: TIMESTEP
30
ITEM: NUMBER OF ATOMS
145
ITEM: BOX BOUNDS pp pp pp
0.0000000000000000e+00 2.1884000000000000e+01
0.0000000000000000e+00 2.1885999999999999e+01
0.0000000000000000e+00 2.1885000000000002e+01
ITEM: ATOMS id type x y z 
9 1 8.51043 12.561 12.561 
10 1 1.6264 19.4459 19.4451 
11 1 1.61915 19.4522 12.5582 
12 1 8.51087 12.5611 19.4527 
13 1 1.61954 12.5579 19.4514 
14 1 8.51056 19.4528 12.5608 
15 1 8.51221 19.4526 19.4518 
16 1 1.61845 12.5608 12.5607 
25 1 10.1049 10.9657 10.9656 
26 1 0.0327112 21.0217 21.0269 
27 1 0.0246972 21.0459 10.9668 
28 1 10.1055 10.9659 21.0469 
29 1 0.0267797 10.9697 21.0445 
30 1 10.1048 21.0481 10.9664 
31 1 10.1031 21.0461 21.0462 
32 1 0.0244689 10.966 10.9657 
57 1 5.81383 12.2211 12.2212 
58 1 4.3204 19.7941 19.7937 
59 1 4.31511 19.792 12.221 
60 1 5.81501 12.2214 19.7918 
61 1 4.31524 12.2212 19.7921 
62 1 5.81486 19.792 12.2211 
63 1 5.82063 19.7935 19.7925 
64 1 4.31405 12.2212 12.2212 
65 1 8.84979 15.256 12.2212 
66 1 1.2775 16.751 19.7934 
67 1 8.84985 16.7561 19.7923 
68 1 1.27916 15.2564 12.2212 
69 1 1.27888 16.7558 12.2212 
70 1 8.85014 15.2565 19.7922 
71 1 1.27817 15.2544 19.7928 
72 1 8.84986 16.7566 12.2211 
73 1 8.84971 12.222 15.2565 
74 1 1.27731 19.7934 16.7512 
75 1 1.27892 12.2211 16.7562 
76 1 8.84977 19.793 15.2559 
77 1 8.8499 19.7931 16.7554 
78 1 1.2791 12.2212 15.2562 
79 1 1.27821 19.7926 15.2514 
80 1 8.84987 12.2223 16.7569 
105 1 7.00395 12.3184 12.3185 
106 1 3.13173 19.6961 19.696 
107 1 3.1264 19.6949 12.3177 
108 1 7.00467 12.3184 19.6948 
109 1 3.12673 12.3179 19.695 
110 1 7.00421 19.6949 12.3185 
111 1 7.00684 19.6958 19.6947 
112 1 3.12579 12.3183 12.3183 
113 1 8.75253 14.0674 12.3185 
114 1 1.37524 17.9393 19.6957 
115 1 8.75296 17.946 19.6948 
116 1 1.37636 14.0672 12.3185 
117 1 1.37601 17.945 12.3178 
118 1 8.7529 14.0672 19.695 
119 1 1.37609 14.0627 19.6949 
120 1 8.7527 17.9464 12.3184 
121 1 8.75256 12.3187 14.0676 
122 1 1.37503 19.6958 17.9392 
123 1 1.37607 12.3179 17.9446 
124 1 8.75253 19.6956 14.067 
125 1 8.75304 19.6957 17.9455 
126 1 1.37633 12.3185 14.0669 
127 1 1.37605 19.6948 14.0621 
128 1 8.75283 12.3192 17.9457 
137 1 9.4111 11.6596 11.6597 
138 1 0.74363 20.3266 20.3276 
139 1 0.719626 20.3509 11.6605 
140 1 9.41159 11.66 20.3532 
141 1 0.719899 11.6619 20.3513 
142 1 9.41159 20.3541 11.6598 
143 1 9.40978 20.3523 20.352 
144 1 0.717627 11.6598 11.6593 
1 1 19.3107 1.52059 1.75506 
2 1 12.5604 8.51049 8.51049 
3 1 12.5587 8.51078 1.61738 
4 1 19.4506 1.61789 8.52716 
5 1 12.5601 1.61739 8.51195 
6 1 19.4516 8.53153 1.62017 
7 1 19.4522 8.51089 8.5111 
8 1 12.544 1.61871 1.61991 
17 1 21.0196 -0.088785 -0.0381154 
18 1 10.9655 10.1052 10.1051 
19 1 10.9648 10.106 0.0232551 
20 1 21.0516 0.019549 10.1101 
21 1 10.965 0.0221164 10.105 
22 1 21.0499 10.1096 0.0204875 
23 1 21.0473 10.1057 10.1054 
24 1 10.962 0.0195465 0.0197895 
33 1 16.7022 1.27239 1.25115 
34 1 15.2571 8.84998 8.84994 
35 1 15.2513 8.84937 1.27853 
36 1 16.7521 1.27657 8.85092 
37 1 15.2482 1.27774 8.85026 
38 1 16.7542 8.85147 1.27873 
39 1 16.7552 8.85003 8.84996 
40 1 15.2219 1.27031 1.27156 
41 1 19.7505 4.38369 1.30676 
42 1 12.2211 5.81274 8.84991 
43 1 19.7924 5.81562 8.85056 
44 1 12.2204 4.31861 1.27759 
45 1 12.2206 5.81811 1.27793 
46 1 19.793 4.31939 8.85077 
47 1 12.2209 4.31675 8.84998 
48 1 19.7898 5.82806 1.26774 
49 1 19.7789 1.26102 4.39093 
50 1 12.2213 8.84903 5.81481 
51 1 12.2203 1.27858 5.81702 
52 1 19.7923 8.85236 4.3161 
53 1 19.7925 8.85049 5.82043 
54 1 12.2205 1.27715 4.31649 
55 1 12.221 8.84905 4.31721 
56 1 19.8058 1.26903 5.84909 
81 1 17.9041 1.35181 1.38105 
82 1 14.066 8.75265 8.75258 
83 1 14.0645 8.75221 1.37542 
84 1 17.9433 1.37382 8.75611 
85 1 14.0655 1.37517 8.75283 
86 1 17.9393 8.75693 1.37437 
87 1 17.9459 8.7528 8.75318 
88 1 14.0284 1.37533 1.3794 
89 1 19.8223 3.17176 1.33575 
90 1 12.3184 7.0049 8.75254 
91 1 19.6945 7.00888 8.75284 
92 1 12.3157 3.13018 1.37448 
93 1 12.3172 7.00538 1.37476 
94 1 19.6964 3.1286 8.75559 
95 1 12.3178 3.12399 8.75283 
96 1 19.6929 7.0337 1.37089 
97 1 19.5104 1.31216 3.21563 
98 1 12.3182 8.75238 7.0026 
99 1 12.3181 1.37623 7.00736 
100 1 19.6964 8.75706 3.13216 
101 1 19.6949 8.75258 7.00815 
102 1 12.3156 1.37336 3.13283 
103 1 12.3169 8.75255 3.1251 
104 1 19.6972 1.37594 7.03443 
129 1 20.4822 0.724686 0.684015 
130 1 11.6598 9.41111 9.41139 
131 1 11.6584 9.4109 0.717824 
132 1 20.3551 0.717062 9.41516 
133 1 11.6587 0.71619 9.4117 
134 1 20.3562 9.41713 0.714123 
135 1 20.3535 9.41156 9.41242 
136 1 11.6567 0.713701 0.713321 
145 2 21.081 2.08389 1.37019 
ITEM: TIMESTEP
40
ITEM: NUMBER OF ATOMS
145
ITEM: BOX BOUNDS pp pp pp
0.0000000000000000e+00 2.1884000000000000e+01
0.0000000000000000e+00 2.1885999999999999e+01
0.0000000000000000e+00 2.1885000000000002e+01
ITEM: ATOMS id type x y z 
9 1 8.50882 12.562 12.5623 
10 1 1.6289 19.4433 19.443 
11 1 1.62067 19.4503 12.5586 
12 1 8.50942 12.5623 19.4512 
13 1 1.62126 12.5599 19.4499 
14 1 8.50921 19.4513 12.5621 
15 1 8.51162 19.451 19.4502 
16 1 1.62003 12.5623 12.5619 
25 1 10.1054 10.965 10.9651 
26 1 0.0305235 21.0159 21.0227 
27 1 0.0251593 21.0455 10.9673 
28 1 10.106 10.9653 21.0474 
29 1 0.0255053 10.9686 21.0458 
30 1 10.1055 21.0486 10.9657 
31 1 10.1031 21.0464 21.0464 
32 1 0.0236558 10.9654 10.9649 
57 1 5.81662 12.2214 12.2215 
58 1 4.31936 19.7944 19.794 
59 1 4.31367 19.7919 12.2212 
60 1 5.81753 12.2216 19.7916 
61 1 4.31384 12.2214 19.792 
62 1 5.81731 19.7918 12.2214 
63 1 5.82209 19.7937 19.7927 
64 1 4.31233 12.2214 12.2214 
65 1 8.84952 15.2546 12.2215 
66 1 1.27711 16.7527 19.7938 
67 1 8.84963 16.7579 19.7921 
68 1 1.27935 15.254 12.2214 
69 1 1.27897 16.7576 12.2214 
70 1 8.84989 15.2544 19.792 
71 1 1.27816 15.2491 19.7928 
72 1 8.84956 16.7586 12.2214 
73 1 8.84946 12.2222 15.2546 
74 1 1.27699 19.7936 16.7517 
75 1 1.27897 12.2213 16.7574 
76 1 8.84957 19.7928 15.2539 
77 1 8.84966 19.793 16.7573 
78 1 1.27931 12.2214 15.2539 
79 1 1.27815 19.7927 15.2488 
80 1 8.84962 12.2225 16.7586 
105 1 7.00617 12.3195 12.3196 
106 1 3.13074 19.6948 19.6946 
107 1 3.12406 19.6939 12.3186 
108 1 7.00722 12.3195 19.6937 
109 1 3.12434 12.3187 19.6939 
110 1 7.00694 19.6938 12.3196 
111 1 7.0118 19.6947 19.6936 
112 1 3.12278 12.3194 12.3194 
113 1 8.75152 14.0651 12.3195 
114 1 1.37679 17.9414 19.6942 
115 1 8.75213 17.9474 19.6939 
116 1 1.37745 14.0643 12.3196 
117 1 1.37703 17.9473 12.3187 
118 1 8.75189 14.0648 19.6939 
119 1 1.37719 14.0593 19.6938 
120 1 8.75172 17.9481 12.3194 
121 1 8.75151 12.3198 14.065 
122 1 1.37648 19.6944 17.94 
123 1 1.37713 12.3187 17.9469 
124 1 8.75148 19.6945 14.0643 
125 1 8.75223 19.6948 17.947 
126 1 1.37739 12.3196 14.0642 
127 1 1.37704 19.6938 14.0592 
128 1 8.7518 12.3203 17.9482 
137 1 9.41044 11.6606 11.6604 
138 1 0.745464 20.3255 20.3253 
139 1 0.720637 20.3503 11.6613 
140 1 9.41095 11.6609 20.3525 
141 1 0.721907 11.6634 20.3493 
142 1 9.4101 20.353 11.661 
143 1 9.40845 20.3505 20.3502 
144 1 0.718987 11.6609 11.6607 
1 1 19.3092 1.51381 1.74663 
2 1 12.562 8.50887 8.50873 
3 1 12.5582 8.50992 1.61985 
4 1 19.4527 1.61986 8.52222 
5 1 12.559 1.61961 8.51098 
6 1 19.4472 8.5308 1.62371 
7 1 19.4504 8.51032 8.51338 
8 1 12.5442 1.62019 1.62082 
17 1 21.0137 -0.0962886 -0.0369713 
18 1 10.9651 10.1058 10.1058 
19 1 10.9641 10.1064 0.0226841 
20 1 21.052 0.019051 10.1101 
21 1 10.9642 0.0210747 10.106 
22 1 21.0518 10.1112 0.0184237 
23 1 21.0483 10.1065 10.1064 
24 1 10.9613 0.0183065 0.0186317 
33 1 16.6868 1.26976 1.24706 
34 1 15.2539 8.84969 8.84959 
35 1 15.2502 8.84953 1.27843 
36 1 16.7494 1.27624 8.85085 
37 1 15.2523 1.27739 8.85044 
38 1 16.7566 8.85098 1.27847 
39 1 16.7568 8.84984 8.8498 
40 1 15.2205 1.27029 1.26998 
41 1 19.7469 4.37707 1.31063 
42 1 12.2214 5.81683 8.84957 
43 1 19.7924 5.81948 8.85044 
44 1 12.2207 4.31753 1.27711 
45 1 12.2205 5.81985 1.27777 
46 1 19.7933 4.31773 8.85049 
47 1 12.2212 4.31308 8.84968 
48 1 19.7852 5.83672 1.26709 
49 1 19.7781 1.25401 4.3852 
50 1 12.2214 8.84893 5.81738 
51 1 12.2204 1.27849 5.81965 
52 1 19.7926 8.85181 4.31566 
53 1 19.7926 8.85062 5.81992 
54 1 12.2206 1.27649 4.31796 
55 1 12.2211 8.84885 4.31325 
56 1 19.8112 1.26494 5.86886 
81 1 17.8845 1.3506 1.37822 
82 1 14.0642 8.7516 8.75156 
83 1 14.0608 8.75134 1.37625 
84 1 17.9414 1.37386 8.75699 
85 1 14.0605 1.3761 8.75201 
86 1 17.9456 8.75891 1.3775 
87 1 17.947 8.75203 8.75257 
88 1 14.0265 1.37554 1.38021 
89 1 19.8516 3.16352 1.33766 
90 1 12.3194 7.0066 8.75155 
91 1 19.6937 7.0098 8.75235 
92 1 12.3154 3.12804 1.37541 
93 1 12.3183 7.01001 1.37589 
94 1 19.6956 3.12823 8.75611 
95 1 12.3186 3.12329 8.75215 
96 1 19.6926 7.03504 1.37037 
97 1 19.4949 1.31402 3.21679 
98 1 12.3195 8.75112 7.00719 
99 1 12.319 1.37714 7.01072 
100 1 19.6935 8.75911 3.12667 
101 1 19.6947 8.75236 7.00892 
102 1 12.3152 1.37439 3.1286 
103 1 12.3179 8.75161 3.12308 
104 1 19.695 1.38 7.06528 
129 1 20.5037 0.738998 0.690449 
130 1 11.6602 9.4105 9.41059 
131 1 11.659 9.41092 0.717885 
132 1 20.3562 0.715442 9.41813 
133 1 11.6595 0.717251 9.41094 
134 1 20.3542 9.41981 0.716327 
135 1 20.3526 9.41092 9.41113 
136 1 11.6559 0.714437 0.714208 
145 2 21.0939 2.10404 1.34005 
ITEM: TIMESTEP
50
ITEM: NUMBER OF ATOMS
145
ITEM: BOX BOUNDS pp pp pp
0.0000000000000000e+00 2.1884000000000000e+01
0.0000000000000000e+00 2.1885999999999999e+01
0.0000000000000000e+00 2.1885000000000002e+01
ITEM: ATOMS id type x y z 
9 1 8.5094 12.5617 12.5617 
10 1 1.63064 19.4422 19.4414 
11 1 1.62094 19.4502 12.5579 
12 1 8.51005 12.5618 19.4516 
13 1 1.62146 12.5587 19.4497 
14 1 8.50975 19.4516 12.5616 
15 1 8.51265 19.4506 19.45 
16 1 1.61965 12.5615 12.5614 
25 1 10.1051 10.9654 10.9654 
26 1 0.0240757 21.0113 21.0211 
27 1 0.0261507 21.0447 10.9683 
28 1 10.1056 10.9657 21.0472 
29 1 0.0261536 10.9693 21.0451 
30 1 10.1051 21.0483 10.966 
31 1 10.1023 21.0457 21.0457 
32 1 0.0239575 10.9658 10.9654 
57 1 5.81529 12.2219 12.2219 
58 1 4.32176 19.7946 19.7942 
59 1 4.31555 19.7917 12.2215 
60 1 5.81645 12.2219 19.7913 
61 1 4.31583 12.2217 19.7918 
62 1 5.8162 19.7914 12.2217 
63 1 5.82169 19.7937 19.7927 
64 1 4.31397 12.2218 12.2218 
65 1 8.84911 15.2557 12.2219 
66 1 1.27698 16.7502 19.7939 
67 1 8.84932 16.7562 19.7919 
68 1 1.27966 15.2552 12.2218 
69 1 1.27918 16.7557 12.2217 
70 1 8.84953 15.2554 19.7917 
71 1 1.27816 15.25 19.7928 
72 1 8.84918 16.7572 12.2218 
73 1 8.84906 12.2226 15.2558 
74 1 1.27682 19.7938 16.7497 
75 1 1.27918 12.2216 16.7555 
76 1 8.84922 19.7925 15.2549 
77 1 8.84934 19.7928 16.7556 
78 1 1.27961 12.2217 15.2549 
79 1 1.27812 19.7927 15.2491 
80 1 8.84923 12.2229 16.7571 
105 1 7.00446 12.3201 12.3201 
106 1 3.13364 19.6938 19.6935 
107 1 3.12622 19.6934 12.3188 
108 1 7.00578 12.3201 19.6932 
109 1 3.12647 12.3191 19.6934 
110 1 7.00551 19.6932 12.3201 
111 1 7.01098 19.6942 19.6931 
112 1 3.12479 12.3199 12.3198 
113 1 8.75094 14.0665 12.3201 
114 1 1.37787 17.938 19.6932 
115 1 8.7518 17.9455 19.6933 
116 1 1.37798 14.0658 12.32 
117 1 1.37755 17.945 12.319 
118 1 8.75136 14.0661 19.6934 
119 1 1.3776 14.0608 19.6934 
120 1 8.7512 17.9464 12.3199 
121 1 8.75095 12.3204 14.0666 
122 1 1.3777 19.6933 17.9375 
123 1 1.37766 12.319 17.9448 
124 1 8.75097 19.6939 14.0656 
125 1 8.75192 19.6942 17.9449 
126 1 1.37793 12.3201 14.0656 
127 1 1.37753 19.6934 14.0598 
128 1 8.75131 12.3208 17.9464 
137 1 9.41034 11.6604 11.6604 
138 1 0.744672 20.3262 20.325 
139 1 0.721826 20.349 11.662 
140 1 9.41076 11.6609 20.3523 
141 1 0.722241 11.6632 20.349 
142 1 9.41018 20.3528 11.661 
143 1 9.40831 20.3499 20.3496 
144 1 0.718981 11.6609 11.6605 
1 1 19.2905 1.50295 1.74453 
2 1 12.5613 8.50953 8.50973 
3 1 12.5579 8.51142 1.61943 
4 1 19.45 1.62055 8.53639 
5 1 12.5589 1.61897 8.51206 
6 1 19.4506 8.5223 1.62075 
7 1 19.4507 8.5116 8.5124 
8 1 12.5445 1.61987 1.62025 
17 1 21.0099 -0.101733 -0.0338404 
18 1 10.9651 10.1056 10.1056 
19 1 10.9642 10.1063 0.0223357 
20 1 21.0532 0.0178179 10.1111 
21 1 10.9642 0.0210305 10.106 
22 1 21.0517 10.1113 0.0185657 
23 1 21.0485 10.1064 10.1063 
24 1 10.961 0.0176274 0.0178901 
33 1 16.68 1.26764 1.2421 
34 1 15.2549 8.84935 8.84926 
35 1 15.2525 8.84905 1.27853 
36 1 16.7487 1.27574 8.85083 
37 1 15.2497 1.27736 8.85032 
38 1 16.753 8.85115 1.27891 
39 1 16.7555 8.84952 8.84947 
40 1 15.2123 1.26904 1.26754 
41 1 19.7436 4.3732 1.31422 
42 1 12.2217 5.81549 8.84923 
43 1 19.7924 5.81968 8.85025 
44 1 12.2208 4.32007 1.27694 
45 1 12.2207 5.81928 1.27771 
46 1 19.7938 4.32147 8.85051 
47 1 12.2215 4.31505 8.84938 
48 1 19.7792 5.84376 1.26818 
49 1 19.7709 1.24943 4.39849 
50 1 12.2218 8.84856 5.81568 
51 1 12.2207 1.27845 5.81957 
52 1 19.7922 8.852 4.31827 
53 1 19.7925 8.85018 5.81909 
54 1 12.2206 1.27633 4.32061 
55 1 12.2214 8.84854 4.3153 
56 1 19.8141 1.26144 5.86577 
81 1 17.883 1.35003 1.37842 
82 1 14.0656 8.7511 8.75103 
83 1 14.0632 8.75119 1.37661 
84 1 17.9387 1.37365 8.75786 
85 1 14.0599 1.37665 8.7516 
86 1 17.9422 8.75987 1.37809 
87 1 17.9451 8.75175 8.75234 
88 1 14.0171 1.37673 1.38146 
89 1 19.8794 3.16219 1.34052 
90 1 12.3199 7.00492 8.75109 
91 1 19.6932 7.00983 8.75217 
92 1 12.3146 3.13065 1.37542 
93 1 12.3184 7.00893 1.37643 
94 1 19.6962 3.13162 8.75767 
95 1 12.3186 3.1259 8.75214 
96 1 19.69 7.03954 1.37058 
97 1 19.4885 1.31572 3.22522 
98 1 12.3199 8.75073 7.00501 
99 1 12.3191 1.37743 7.00949 
100 1 19.6929 8.75997 3.12882 
101 1 19.694 8.75192 7.00838 
102 1 12.3142 1.37433 3.13114 
103 1 12.3181 8.75131 3.12571 
104 1 19.6981 1.37932 7.05863 
129 1 20.5259 0.749353 0.693631 
130 1 11.6602 9.41067 9.41077 
131 1 11.6585 9.4113 0.718045 
132 1 20.3568 0.715308 9.42004 
133 1 11.659 0.71713 9.41141 
134 1 20.3537 9.42192 0.716923 
135 1 20.3526 9.41134 9.41191 
136 1 11.6539 0.714012 0.714105 
145 2 21.1167 2.12471 1.31053 
ITEM: TIMESTEP
60
ITEM: NUMBER OF ATOMS
145
ITEM: BOX BOUNDS pp pp pp
0.0000000000000000e+00 2.1884000000000000e+01
0.0000000000000000e+00 2.1885999999999999e+01
0.0000000000000000e+00 2.1885000000000002e+01
ITEM: ATOMS id type x y z 
9 1 8.50791 12.5628 12.5629 
10 1 1.6385 19.4359 19.4347 
11 1 1.62504 19.446 12.5575 
12 1 8.50903 12.5628 19.4494 
13 1 1.62516 12.5586 19.4463 
14 1 8.50863 19.4492 12.5624 
15 1 8.51331 19.4467 19.4463 
16 1 1.62184 12.5628 12.5621 
25 1 10.1048 10.9655 10.9656 
26 1 -0.00433898 20.9922 21.0182 
27 1 0.0291777 21.0417 10.9715 
28 1 10.1052 10.9664 21.0469 
29 1 0.0269329 10.97 21.0444 
30 1 10.1043 21.0473 10.9664 
31 1 10.0996 21.0431 21.0429 
32 1 0.024463 10.9668 10.9658 
57 1 5.81635 12.2233 12.2234 
58 1 4.32465 19.7953 19.7949 
59 1 4.31663 19.7912 12.2225 
60 1 5.81829 12.223 19.7904 
61 1 4.31673 12.2227 19.7911 
62 1 5.81911 19.7904 12.223 
63 1 5.82564 19.7941 19.7932 
64 1 4.31391 12.2232 12.2232 
65 1 8.84758 15.2549 12.2234 
66 1 1.27639 16.7487 19.7944 
67 1 8.84829 16.7552 19.7912 
68 1 1.2806 15.2528 12.2229 
69 1 1.27972 16.7548 12.2226 
70 1 8.84829 15.2538 19.7907 
71 1 1.27777 15.245 19.7931 
72 1 8.84773 16.7577 12.2233 
73 1 8.84758 12.2241 15.2546 
74 1 1.27627 19.7942 16.7473 
75 1 1.27979 12.2226 16.7546 
76 1 8.84795 19.7914 15.2522 
77 1 8.84834 19.7922 16.7541 
78 1 1.28059 12.2229 15.2528 
79 1 1.27773 19.793 15.2455 
80 1 8.84784 12.2242 16.7569 
105 1 7.00717 12.3231 12.3231 
106 1 3.1346 19.6884 19.6878 
107 1 3.12633 19.6903 12.3208 
108 1 7.00931 12.323 19.6901 
109 1 3.1262 12.3212 19.6903 
110 1 7.00827 19.6902 12.3228 
111 1 7.01594 19.6914 19.6905 
112 1 3.12357 12.3227 12.3227 
113 1 8.74793 14.0644 12.323 
114 1 1.38398 17.9383 19.6873 
115 1 8.7499 17.9449 19.6904 
116 1 1.38104 14.0622 12.3228 
117 1 1.38059 17.9449 12.3209 
118 1 8.74863 14.0629 19.6905 
119 1 1.38065 14.0555 19.6904 
120 1 8.74846 17.9468 12.3227 
121 1 8.74797 12.3234 14.0642 
122 1 1.38397 19.6876 17.9368 
123 1 1.38074 12.3211 17.945 
124 1 8.7482 19.6908 14.0632 
125 1 8.75004 19.6912 17.945 
126 1 1.38094 12.3228 14.0624 
127 1 1.38026 19.6907 14.0562 
128 1 8.74862 12.3235 17.9477 
137 1 9.4107 11.6608 11.6606 
138 1 0.73282 20.3341 20.3285 
139 1 0.726027 20.3453 11.6639 
140 1 9.41028 11.6609 20.3518 
141 1 0.722975 11.6619 20.3482 
142 1 9.41 20.3522 11.6615 
143 1 9.40727 20.3467 20.3464 
144 1 0.719677 11.6605 11.6613 
1 1 19.2122 1.46724 1.78657 
2 1 12.5621 8.50919 8.50884 
3 1 12.5598 8.51375 1.62242 
4 1 19.4462 1.62484 8.53939 
5 1 12.5519 1.62415 8.5145 
6 1 19.4527 8.51886 1.61821 
7 1 19.4483 8.51556 8.51258 
8 1 12.5272 1.62461 1.62695 
17 1 20.9893 -0.0820481 0.00957778 
18 1 10.965 10.1064 10.1062 
19 1 10.9635 10.1062 0.0213906 
20 1 21.0574 0.0140808 10.1142 
21 1 10.9631 0.0200782 10.107 
22 1 21.0497 10.1131 0.0205218 
23 1 21.0497 10.1066 10.1072 
24 1 10.9589 0.0146887 0.0150322 
33 1 16.6763 1.26622 1.23071 
34 1 15.253 8.8482 8.84794 
35 1 15.2478 8.84782 1.2786 