 # File generated with Atomsk by ana on 2024-09-05 17:49:02
  
         145  atoms
           2  atom types
 
      0.000000000000      21.884000000000  xlo xhi
      0.000000000000      21.886000000000  ylo yhi
      0.000000000000      21.885000000000  zlo zhi
 
Masses
 
            1   12.01100000             # C
            2   15.99900000             # O
 
Atoms # charge
 
         1    1   0.000000       19.466000000000       1.604000000000       1.604000000000
         2    1   0.000000       12.547000000000       8.524000000000       8.524000000000
         3    1   0.000000       12.546000000000       8.524000000000       1.604000000000
         4    1   0.000000       19.466000000000       1.605000000000       8.524000000000
         5    1   0.000000       12.547000000000       1.604000000000       8.524000000000
         6    1   0.000000       19.466000000000       8.524000000000       1.605000000000
         7    1   0.000000       19.466000000000       8.524000000000       8.524000000000
         8    1   0.000000       12.547000000000       1.604000000000       1.605000000000
         9    1   0.000000        8.524000000000      12.547000000000      12.547000000000
        10    1   0.000000        1.604000000000      19.466000000000      19.466000000000
        11    1   0.000000        1.605000000000      19.466000000000      12.547000000000
        12    1   0.000000        8.524000000000      12.547000000000      19.466000000000
        13    1   0.000000        1.605000000000      12.547000000000      19.466000000000
        14    1   0.000000        8.524000000000      19.467000000000      12.547000000000
        15    1   0.000000        8.524000000000      19.467000000000      19.466000000000
        16    1   0.000000        1.605000000000      12.547000000000      12.547000000000
        17    1   0.000000       21.048000000000       0.023000000000       0.022000000000
        18    1   0.000000       10.965000000000      10.106000000000      10.106000000000
        19    1   0.000000       10.965000000000      10.106000000000       0.024000000000
        20    1   0.000000       21.048000000000       0.024000000000      10.107000000000
        21    1   0.000000       10.965000000000       0.022000000000      10.105000000000
        22    1   0.000000       21.048000000000      10.105000000000       0.023000000000
        23    1   0.000000       21.047000000000      10.106000000000      10.106000000000
        24    1   0.000000       10.965000000000       0.023000000000       0.022000000000
        25    1   0.000000       10.105000000000      10.965000000000      10.965000000000
        26    1   0.000000        0.023000000000      21.047000000000      21.049000000000
        27    1   0.000000        0.023000000000      21.047000000000      10.964000000000
        28    1   0.000000       10.106000000000      10.965000000000      21.047000000000
        29    1   0.000000        0.023000000000      10.966000000000      21.048000000000
        30    1   0.000000       10.106000000000      21.049000000000      10.966000000000
        31    1   0.000000       10.106000000000      21.048000000000      21.049000000000
        32    1   0.000000        0.024000000000      10.965000000000      10.965000000000
        33    1   0.000000       16.753000000000       1.275000000000       1.276000000000
        34    1   0.000000       15.260000000000       8.853000000000       8.853000000000
        35    1   0.000000       15.260000000000       8.852000000000       1.276000000000
        36    1   0.000000       16.753000000000       1.275000000000       8.853000000000
        37    1   0.000000       15.260000000000       1.275000000000       8.853000000000
        38    1   0.000000       16.753000000000       8.852000000000       1.276000000000
        39    1   0.000000       16.753000000000       8.853000000000       8.853000000000
        40    1   0.000000       15.260000000000       1.275000000000       1.276000000000
        41    1   0.000000       19.795000000000       4.317000000000       1.276000000000
        42    1   0.000000       12.218000000000       5.811000000000       8.853000000000
        43    1   0.000000       19.795000000000       5.811000000000       8.853000000000
        44    1   0.000000       12.218000000000       4.317000000000       1.276000000000
        45    1   0.000000       12.218000000000       5.811000000000       1.275000000000
        46    1   0.000000       19.795000000000       4.317000000000       8.853000000000
        47    1   0.000000       12.218000000000       4.317000000000       8.853000000000
        48    1   0.000000       19.795000000000       5.811000000000       1.276000000000
        49    1   0.000000       19.795000000000       1.275000000000       4.317000000000
        50    1   0.000000       12.218000000000       8.852000000000       5.811000000000
        51    1   0.000000       12.218000000000       1.276000000000       5.811000000000
        52    1   0.000000       19.795000000000       8.853000000000       4.318000000000
        53    1   0.000000       19.795000000000       8.853000000000       5.811000000000
        54    1   0.000000       12.218000000000       1.275000000000       4.318000000000
        55    1   0.000000       12.218000000000       8.852000000000       4.317000000000
        56    1   0.000000       19.795000000000       1.275000000000       5.811000000000
        57    1   0.000000        5.811000000000      12.218000000000      12.218000000000
        58    1   0.000000        4.317000000000      19.796000000000      19.795000000000
        59    1   0.000000        4.318000000000      19.795000000000      12.218000000000
        60    1   0.000000        5.811000000000      12.219000000000      19.795000000000
        61    1   0.000000        4.318000000000      12.218000000000      19.795000000000
        62    1   0.000000        5.811000000000      19.795000000000      12.218000000000
        63    1   0.000000        5.811000000000      19.796000000000      19.795000000000
        64    1   0.000000        4.318000000000      12.218000000000      12.218000000000
        65    1   0.000000        8.853000000000      15.260000000000      12.218000000000
        66    1   0.000000        1.276000000000      16.754000000000      19.795000000000
        67    1   0.000000        8.853000000000      16.754000000000      19.795000000000
        68    1   0.000000        1.276000000000      15.260000000000      12.218000000000
        69    1   0.000000        1.276000000000      16.754000000000      12.218000000000
        70    1   0.000000        8.853000000000      15.260000000000      19.796000000000
        71    1   0.000000        1.276000000000      15.260000000000      19.795000000000
        72    1   0.000000        8.853000000000      16.753000000000      12.218000000000
        73    1   0.000000        8.853000000000      12.219000000000      15.260000000000
        74    1   0.000000        1.276000000000      19.795000000000      16.753000000000
        75    1   0.000000        1.276000000000      12.218000000000      16.754000000000
        76    1   0.000000        8.853000000000      19.796000000000      15.260000000000
        77    1   0.000000        8.853000000000      19.796000000000      16.753000000000
        78    1   0.000000        1.276000000000      12.218000000000      15.260000000000
        79    1   0.000000        1.276000000000      19.795000000000      15.260000000000
        80    1   0.000000        8.853000000000      12.219000000000      16.754000000000
        81    1   0.000000       17.952000000000       1.374000000000       1.375000000000
        82    1   0.000000       14.061000000000       8.754000000000       8.754000000000
        83    1   0.000000       14.060000000000       8.753000000000       1.375000000000
        84    1   0.000000       17.952000000000       1.374000000000       8.754000000000
        85    1   0.000000       14.060000000000       1.374000000000       8.754000000000
        86    1   0.000000       17.952000000000       8.754000000000       1.375000000000
        87    1   0.000000       17.952000000000       8.754000000000       8.754000000000
        88    1   0.000000       14.061000000000       1.374000000000       1.375000000000
        89    1   0.000000       19.696000000000       3.118000000000       1.375000000000
        90    1   0.000000       12.317000000000       7.010000000000       8.754000000000
        91    1   0.000000       19.696000000000       7.010000000000       8.754000000000
        92    1   0.000000       12.317000000000       3.118000000000       1.375000000000
        93    1   0.000000       12.317000000000       7.010000000000       1.374000000000
        94    1   0.000000       19.695000000000       3.118000000000       8.754000000000
        95    1   0.000000       12.317000000000       3.118000000000       8.754000000000
        96    1   0.000000       19.696000000000       7.010000000000       1.375000000000
        97    1   0.000000       19.696000000000       1.374000000000       3.118000000000
        98    1   0.000000       12.317000000000       8.754000000000       7.010000000000
        99    1   0.000000       12.317000000000       1.375000000000       7.010000000000
       100    1   0.000000       19.696000000000       8.754000000000       3.118000000000
       101    1   0.000000       19.696000000000       8.754000000000       7.010000000000
       102    1   0.000000       12.317000000000       1.374000000000       3.119000000000
       103    1   0.000000       12.317000000000       8.753000000000       3.118000000000
       104    1   0.000000       19.696000000000       1.374000000000       7.010000000000
       105    1   0.000000        7.010000000000      12.317000000000      12.317000000000
       106    1   0.000000        3.118000000000      19.696000000000      19.696000000000
       107    1   0.000000        3.119000000000      19.696000000000      12.317000000000
       108    1   0.000000        7.011000000000      12.317000000000      19.696000000000
       109    1   0.000000        3.119000000000      12.317000000000      19.696000000000
       110    1   0.000000        7.010000000000      19.696000000000      12.317000000000
       111    1   0.000000        7.010000000000      19.697000000000      19.696000000000
       112    1   0.000000        3.118000000000      12.317000000000      12.317000000000
       113    1   0.000000        8.754000000000      14.061000000000      12.317000000000
       114    1   0.000000        1.375000000000      17.953000000000      19.696000000000
       115    1   0.000000        8.754000000000      17.953000000000      19.696000000000
       116    1   0.000000        1.375000000000      14.061000000000      12.317000000000
       117    1   0.000000        1.375000000000      17.953000000000      12.317000000000
       118    1   0.000000        8.754000000000      14.061000000000      19.696000000000
       119    1   0.000000        1.375000000000      14.061000000000      19.696000000000
       120    1   0.000000        8.754000000000      17.953000000000      12.317000000000
       121    1   0.000000        8.754000000000      12.317000000000      14.061000000000
       122    1   0.000000        1.375000000000      19.696000000000      17.952000000000
       123    1   0.000000        1.375000000000      12.317000000000      17.953000000000
       124    1   0.000000        8.754000000000      19.697000000000      14.061000000000
       125    1   0.000000        8.754000000000      19.697000000000      17.952000000000
       126    1   0.000000        1.375000000000      12.317000000000      14.061000000000
       127    1   0.000000        1.375000000000      19.696000000000      14.061000000000
       128    1   0.000000        8.754000000000      12.318000000000      17.953000000000
       129    1   0.000000       20.350000000000       0.722000000000       0.721000000000
       130    1   0.000000       11.664000000000       9.407000000000       9.407000000000
       131    1   0.000000       11.663000000000       9.407000000000       0.722000000000
       132    1   0.000000       20.350000000000       0.722000000000       9.408000000000
       133    1   0.000000       11.663000000000       0.720000000000       9.407000000000
       134    1   0.000000       20.350000000000       9.407000000000       0.721000000000
       135    1   0.000000       20.349000000000       9.407000000000       9.407000000000
       136    1   0.000000       11.664000000000       0.721000000000       0.721000000000
       137    1   0.000000        9.407000000000      11.664000000000      11.664000000000
       138    1   0.000000        0.721000000000      20.349000000000      20.350000000000
       139    1   0.000000        0.721000000000      20.349000000000      11.663000000000
       140    1   0.000000        9.408000000000      11.664000000000      20.349000000000
       141    1   0.000000        0.721000000000      11.664000000000      20.350000000000
       142    1   0.000000        9.407000000000      20.350000000000      11.664000000000
       143    1   0.000000        9.407000000000      20.350000000000      20.350000000000
       144    1   0.000000        0.722000000000      11.664000000000      11.663000000000
       145    2   0.000000       20.790000000000       1.901000000000       1.564000000000
