ITEM: TIMESTEP
0
ITEM: NUMBER OF ATOMS
131
ITEM: BOX BOUNDS xy xz yz pp pp pp
0.0000000000000000e+00 2.3654499999999999e+01 7.8845000000000001e+00
0.0000000000000000e+00 1.3658086643083999e+01 0.0000000000000000e+00
0.0000000000000000e+00 2.5747000000000000e+01 0.0000000000000000e+00
ITEM: ATOMS id type x y z 
18 1 10.522 6.683 2.644 
28 1 5.247 4.273 12.803 
31 1 9.65 6.514 0.446 
62 1 9.171 5.15 12.405 
91 1 9.65 6.514 11.889 
92 1 10.81 6.18 11.007 
106 1 10.522 6.683 9.691 
127 1 10.81 6.18 1.328 
4 1 4.402 5.735 13.319 
5 1 3.307 5.568 14.201 
43 1 4.549 6.796 15.517 
52 1 9.172 5.15 25.677 
66 1 4.402 5.735 24.762 
67 1 5.003 6.76 23.881 
88 1 5.247 4.273 25.278 
107 1 3.307 5.568 23.881 
116 1 4.549 6.796 22.565 
117 1 5.003 6.76 14.201 
11 1 11.272 7.494 3.321 
12 1 10.477 8.871 4.018 
14 1 9.018 11.397 0.446 
15 1 10.114 11.565 1.328 
16 1 8.412 9.024 0.654 
19 1 10.477 8.871 5.569 
29 1 10.927 10.156 3.321 
32 1 8.77 7.648 1.328 
35 1 12.036 9.594 2.644 
45 1 9.231 8.963 3.321 
47 1 12.762 8.702 0.446 
49 1 11.224 11 0.654 
51 1 8.872 10.337 2.644 
53 1 11.272 7.494 9.014 
54 1 10.477 8.871 8.317 
56 1 9.018 11.397 11.889 
57 1 8.418 10.372 11.007 
58 1 11.224 11 11.681 
60 1 12.255 7.901 9.691 
61 1 10.477 8.871 6.766 
73 1 9.231 8.963 9.014 
75 1 12.762 8.702 11.889 
76 1 12.202 10.061 11.007 
79 1 9.224 7.617 9.691 
80 1 8.174 12.859 12.405 
89 1 10.927 10.156 9.014 
93 1 8.412 9.024 11.681 
95 1 9.951 11.095 9.691 
105 1 10.114 11.565 11.007 
109 1 8.77 7.648 11.007 
110 1 12.036 9.594 9.691 
114 1 8.872 10.337 9.691 
119 1 8.418 10.372 1.328 
120 1 12.255 7.901 2.644 
123 1 12.202 10.061 1.328 
124 1 9.224 7.617 2.644 
128 1 9.951 11.095 2.644 
129 2 7.089 10.436 11.276 
6 1 5.009 8.108 13.527 
13 1 9.663 10.28 25.128 
17 1 9.204 8.965 25.162 
30 1 10.016 7.556 25.128 
34 1 11.289 7.464 25.162 
36 1 8.174 12.859 25.677 
46 1 11.752 8.777 25.128 
50 1 10.937 10.184 25.162 
55 1 9.663 10.28 12.954 
59 1 10.937 10.184 12.919 
74 1 11.752 8.777 12.954 
78 1 11.289 7.464 12.919 
90 1 10.016 7.556 12.954 
94 1 9.204 8.965 12.919 
101 1 5.009 8.108 24.555 
33 1 11.795 6.589 0.654 
77 1 11.795 6.589 11.681 
41 1 17.967 6.132 13.527 
68 1 17.967 6.132 24.554 
103 1 19.24 6.037 22.565 
126 1 19.24 6.037 15.517 
3 1 19.528 6.852 12.254 
7 1 19.987 8.167 12.289 
10 1 15.106 8.528 12.804 
22 1 19.175 9.576 12.254 
26 1 17.902 9.668 12.289 
38 1 17.439 8.356 12.254 
42 1 18.254 6.949 12.289 
44 1 20.019 11.982 12.804 
48 1 12.546 7.4 1.328 
65 1 19.528 6.852 0.081 
69 1 18.254 6.949 0.046 
82 1 17.439 8.356 0.081 
86 1 17.902 9.668 0.046 
96 1 14.084 8.604 12.405 
98 1 19.175 9.576 0.081 
102 1 19.987 8.167 0.046 
113 1 12.546 7.4 11.007 
130 2 21.977 11.195 10.331 
131 3 22.218 12.153 10.344 
1 1 17.919 9.638 16.194 
2 1 18.714 8.261 16.892 
8 1 18.669 10.449 15.517 
9 1 18.714 8.261 18.442 
20 1 14.084 8.604 25.677 
21 1 18.264 6.977 16.194 
23 1 19.541 10.618 13.32 
24 1 20.421 9.484 14.201 
25 1 17.396 10.544 13.527 
27 1 17.155 7.538 15.517 
37 1 19.96 8.169 16.194 
39 1 16.429 8.43 13.319 
40 1 16.644 9.732 14.201 
63 1 17.919 9.638 21.888 
64 1 18.714 8.261 21.19 
70 1 16.936 9.231 22.565 
71 1 18.714 8.261 19.64 
72 1 20.019 11.982 25.278 
81 1 19.96 8.169 21.888 
83 1 16.429 8.43 24.762 
84 1 16.989 7.071 23.881 
85 1 17.396 10.544 24.555 
87 1 19.967 9.515 22.565 
97 1 18.263 6.977 21.888 
99 1 19.541 10.618 24.762 
100 1 18.38 10.953 23.881 
104 1 15.106 8.528 25.278 
108 1 18.669 10.449 22.565 
111 1 20.421 9.484 23.881 
112 1 17.155 7.538 22.565 
115 1 16.644 9.732 23.881 
118 1 16.936 9.231 15.517 
121 1 16.989 7.071 14.201 
122 1 19.967 9.515 15.517 
125 1 18.38 10.953 14.201 
ITEM: TIMESTEP
10
ITEM: NUMBER OF ATOMS
131
ITEM: BOX BOUNDS xy xz yz pp pp pp
0.0000000000000000e+00 2.3654499999999999e+01 7.8845000000000001e+00
0.0000000000000000e+00 1.3658086643083999e+01 0.0000000000000000e+00
0.0000000000000000e+00 2.5747000000000000e+01 0.0000000000000000e+00
ITEM: ATOMS id type x y z 
18 1 10.4087 6.72306 2.64635 
28 1 5.20333 4.35976 12.83 
31 1 9.51901 6.47071 0.431069 
62 1 9.16507 5.20341 12.3898 
91 1 9.51765 6.49291 11.9138 
92 1 10.8289 6.16667 10.9972 
106 1 10.4012 6.72322 9.68929 
127 1 10.8252 6.16643 1.34372 
4 1 4.43949 5.73801 13.2729 
5 1 3.22452 5.57925 14.1978 
43 1 4.57039 6.9011 15.512 
52 1 9.16593 5.20094 25.6916 
66 1 4.44204 5.73776 24.8089 
67 1 5.04865 6.87016 23.8978 
88 1 5.20305 4.36051 25.2508 
107 1 3.22173 5.57567 23.8847 
116 1 4.56991 6.90093 22.5692 
117 1 5.04786 6.86913 14.1849 
11 1 11.3191 7.54082 3.33281 
12 1 10.4821 8.85883 4.06745 
14 1 8.98461 11.3897 0.401775 
15 1 10.1931 11.5536 1.32329 
16 1 8.44446 8.98936 0.691461 
19 1 10.4752 8.87061 5.55866 
29 1 10.9493 10.151 3.32226 
32 1 8.75819 7.70564 1.29227 
35 1 12.0352 9.57664 2.57943 
45 1 9.22246 8.9578 3.26809 
47 1 12.7443 8.76333 0.508958 
49 1 11.2843 10.9241 0.684284 
51 1 8.85095 10.2318 2.63987 
53 1 11.3229 7.54106 8.99896 
54 1 10.4953 8.86203 8.26296 
56 1 9.03239 11.4283 11.9715 
57 1 8.25919 10.3068 11.0425 
58 1 11.287 10.9249 11.655 
60 1 12.2554 7.98178 9.65716 
61 1 10.476 8.87117 6.775 
73 1 9.21855 8.96131 9.06951 
75 1 12.739 8.76397 11.8299 
76 1 12.1825 10.0525 11.0112 
79 1 9.24529 7.6416 9.74777 
80 1 8.2329 12.755 12.3755 
89 1 10.9469 10.1413 9.01406 
93 1 8.47769 8.90498 11.6549 
95 1 9.99273 11.0669 9.6786 
105 1 10.17 11.5554 11.0307 
109 1 8.76543 7.72247 11.0279 
110 1 12.0339 9.58228 9.75393 
114 1 8.86901 10.2352 9.64705 
119 1 8.37413 10.2673 1.30966 
120 1 12.2533 7.98393 2.67759 
123 1 12.1821 10.0548 1.32321 
124 1 9.25778 7.64473 2.61676 
128 1 10.003 11.0839 2.65813 
129 2 7.14131 10.4365 11.2545 
6 1 4.97665 8.14065 13.5673 
13 1 9.57698 10.3432 25.1258 
17 1 9.23319 9.00141 25.1747 
30 1 9.95862 7.62298 25.1111 
34 1 11.3422 7.46732 25.1268 
36 1 8.21829 12.7712 25.7044 
46 1 11.6988 8.80128 25.1144 
50 1 10.957 10.0975 25.1742 
55 1 9.5835 10.3536 12.9361 
59 1 10.9585 10.1086 12.9038 
74 1 11.6909 8.79846 12.9651 
78 1 11.316 7.47389 12.9496 
90 1 9.98372 7.62653 12.9669 
94 1 9.22673 8.96431 12.892 
101 1 4.97532 8.14047 24.5122 
33 1 11.7709 6.55476 0.657877 
77 1 11.7681 6.55846 11.6795 
41 1 17.907 6.20834 13.5585 
68 1 17.9077 6.21022 24.5214 
103 1 19.1893 6.04926 22.5477 
126 1 19.1882 6.04772 15.5319 
3 1 19.6151 6.78758 12.2488 
7 1 19.9551 8.12875 12.2994 
10 1 15.155 8.49511 12.8311 
22 1 19.2337 9.51213 12.2419 
26 1 17.8488 9.66656 12.2551 
38 1 17.4926 8.33399 12.2374 
42 1 18.2364 7.03607 12.3 
44 1 20.0247 11.9305 12.8189 
48 1 12.5918 7.48251 1.37366 
65 1 19.6201 6.7815 0.0868827 
69 1 18.2423 7.04074 0.0366941 
82 1 17.492 8.33446 0.10091 
86 1 17.8487 9.67024 0.0808394 
96 1 14.0324 8.63689 12.3775 
98 1 19.233 9.51405 0.092677 
102 1 19.9461 8.12529 0.0368277 
113 1 12.5898 7.48079 10.9628 
130 2 21.9727 11.206 10.3278 
131 3 22.2162 12.1427 10.3447 
1 1 17.8714 9.59152 16.2058 
2 1 18.7089 8.27313 16.9412 
8 1 18.7822 10.4085 15.5198 
9 1 18.7156 8.26113 18.4328 
20 1 14.0389 8.63603 25.703 
21 1 18.2411 6.98203 16.196 
23 1 19.671 10.6618 13.3036 
24 1 20.4317 9.42596 14.1614 
25 1 17.4185 10.5761 13.5315 
27 1 17.1556 7.55629 15.4528 
37 1 19.9689 8.17491 16.1412 
39 1 16.447 8.37111 13.3863 
40 1 16.6022 9.64914 14.2469 
63 1 17.8713 9.59134 21.8758 
64 1 18.7083 8.27422 21.1401 
70 1 16.937 9.14723 22.5327 
71 1 18.7156 8.26122 19.6489 
72 1 20.0248 11.9309 25.2634 
81 1 19.9684 8.17444 21.9413 
83 1 16.4431 8.37212 24.694 
84 1 17.0106 7.07249 23.8854 
85 1 17.4185 10.5775 24.5503 
87 1 19.9335 9.48671 22.5916 
97 1 18.241 6.98242 21.8863 
99 1 19.6704 10.661 24.7787 
100 1 18.3651 10.9663 23.8673 
104 1 15.1485 8.49623 25.2526 
108 1 18.7823 10.4089 22.5615 
111 1 20.4328 9.42353 23.9212 
112 1 17.1559 7.55653 22.629 
115 1 16.6011 9.64941 23.8349 
118 1 16.9372 9.14799 15.5489 
121 1 17.0089 7.07576 14.1966 
122 1 19.9328 9.48722 15.4903 
125 1 18.3646 10.9659 14.2149 
ITEM: TIMESTEP
20
ITEM: NUMBER OF ATOMS
131
ITEM: BOX BOUNDS xy xz yz pp pp pp
0.0000000000000000e+00 2.3654499999999999e+01 7.8845000000000001e+00
0.0000000000000000e+00 1.3658086643083999e+01 0.0000000000000000e+00
0.0000000000000000e+00 2.5747000000000000e+01 0.0000000000000000e+00
ITEM: ATOMS id type x y z 
18 1 10.3763 6.76958 2.65237 
28 1 5.10555 4.5611 12.8877 
31 1 9.41358 6.4307 0.411433 
62 1 9.11986 5.27086 12.3793 
91 1 9.41423 6.5029 11.9525 
92 1 10.817 6.18695 10.9678 
106 1 10.3714 6.76813 9.69172 
127 1 10.8322 6.18881 1.37895 
4 1 4.43352 5.80442 13.2551 
5 1 3.16989 5.62308 14.2134 
43 1 4.55948 6.96689 15.4846 
52 1 9.11131 5.22665 25.6887 
66 1 4.43558 5.79892 24.8271 
67 1 5.09122 6.9102 23.8828 
88 1 5.10827 4.55671 25.1943 
107 1 3.17189 5.62465 23.8657 
116 1 4.56126 6.96808 22.598 
117 1 5.09162 6.91002 14.1946 
11 1 11.3343 7.58622 3.36748 
12 1 10.4829 8.86768 4.11011 
14 1 8.97378 11.3478 0.381442 
15 1 10.2642 11.4964 1.34319 
16 1 8.39619 8.96695 0.67334 
19 1 10.4697 8.87134 5.55428 
29 1 10.9534 10.1408 3.34438 
32 1 8.75176 7.67694 1.19928 
35 1 12.0497 9.61314 2.604 
45 1 9.23165 8.92614 3.27539 
47 1 12.6616 8.79225 0.559824 
49 1 11.3233 10.9208 0.664973 
51 1 8.85128 10.1565 2.60735 
53 1 11.3329 7.588 8.97045 
54 1 10.493 8.85513 8.22129 
56 1 9.04125 11.4226 12.0344 
57 1 8.14674 10.2012 10.9975 
58 1 11.3156 10.9204 11.6554 
60 1 12.2709 8.02948 9.60724 
61 1 10.4724 8.87003 6.77818 
73 1 9.22857 8.94718 9.05735 
75 1 12.6602 8.79209 11.7737 
76 1 12.2662 10.0615 11.0282 
79 1 9.21572 7.65531 9.76623 
80 1 8.3406 12.5779 12.3396 
89 1 10.963 10.1412 8.98237 
93 1 8.44874 8.88079 11.6379 
95 1 10.0217 11.0096 9.71442 
105 1 10.2609 11.4975 11.0028 
109 1 8.71057 7.67146 11.0559 
110 1 12.0558 9.60934 9.72825 
114 1 8.85008 10.1606 9.70535 
119 1 8.33162 10.2048 1.33197 
120 1 12.2669 8.0355 2.72884 
123 1 12.2662 10.0472 1.3148 
124 1 9.23036 7.66304 2.54843 
128 1 10.0491 11.0514 2.64661 
129 2 7.14942 10.4421 11.2242 
6 1 5.023 8.16329 13.5405 
13 1 9.6046 10.3371 25.121 
17 1 9.16938 9.01428 25.1194 
30 1 9.90614 7.70535 25.165 
34 1 11.2868 7.49953 25.1508 
36 1 8.30241 12.5944 25.7539 
46 1 11.6786 8.79918 25.1235 
50 1 10.947 10.1257 25.1458 
55 1 9.59215 10.3352 12.9604 
59 1 10.946 10.1253 12.9275 
74 1 11.6888 8.82269 12.96 
78 1 11.2782 7.49946 12.9701 
90 1 9.95165 7.67989 12.9855 
94 1 9.21249 8.96166 12.9416 
101 1 5.01971 8.16248 24.5423 
33 1 11.7426 6.59366 0.679504 
77 1 11.7424 6.58997 11.6443 
41 1 17.8723 6.21154 13.5344 
68 1 17.8745 6.20959 24.5495 
103 1 19.1481 6.09319 22.5656 
126 1 19.1504 6.09579 15.515 
3 1 19.5944 6.77636 12.2619 
7 1 20.0323 8.10917 12.2455 
10 1 15.1392 8.46087 12.8379 
22 1 19.2892 9.42879 12.2992 
26 1 17.9043 9.63578 12.2761 
38 1 17.5091 8.3347 12.2437 
42 1 18.2492 6.99836 12.2689 
44 1 20.0817 11.9149 12.8124 
48 1 12.5766 7.5721 1.37347 
65 1 19.594 6.77314 0.0773679 
69 1 18.2508 6.99442 0.0689384 
82 1 17.5047 8.33312 0.100516 
86 1 17.9091 9.63506 0.0626233 
96 1 14.0493 8.6707 12.3715 
98 1 19.2939 9.43486 0.0352869 
102 1 20.0309 8.11672 0.0922514 
113 1 12.5707 7.57342 10.9663 
130 2 21.9554 11.2179 10.3178 
131 3 22.2149 12.1378 10.3451 
1 1 17.856 9.5429 16.243 
2 1 18.7082 8.26867 16.9863 
8 1 18.8162 10.3648 15.5263 
9 1 18.7211 8.26139 18.43 
20 1 14.0635 8.66908 25.7057 
21 1 18.2431 6.98404 16.2161 
23 1 19.784 10.7069 13.287 
24 1 20.4328 9.4544 14.0652 
25 1 17.4472 10.5427 13.5523 
27 1 17.1405 7.52089 15.4779 
37 1 19.9578 8.20431 16.1488 
39 1 16.5235 8.34092 13.4327 
40 1 16.6086 9.56149 14.2465 
63 1 17.8557 9.54339 21.8384 
64 1 18.7071 8.26771 21.096 
70 1 16.9229 9.0965 22.4785 
71 1 18.7208 8.26149 19.6513 
72 1 20.0823 11.9172 25.2708 
81 1 19.9599 8.20451 21.9314 
83 1 16.5127 8.34227 24.6413 
84 1 16.9202 7.07999 23.8879 
85 1 17.4434 10.5425 24.5271 
87 1 19.9614 9.46934 22.6616 
97 1 18.2429 6.98437 21.8649 
99 1 19.786 10.7025 24.7987 
100 1 18.3528 10.9454 23.8269 
104 1 15.1216 8.4651 25.25 
108 1 18.8153 10.3663 22.5549 
111 1 20.4369 9.45585 24.0124 
112 1 17.1392 7.51909 22.6022 
115 1 16.6118 9.56586 23.832 
118 1 16.9246 9.0942 15.6056 
121 1 16.9206 7.08219 14.192 
122 1 19.96 9.46819 15.4188 
125 1 18.3541 10.9452 14.2536 
ITEM: TIMESTEP
30
ITEM: NUMBER OF ATOMS
131
ITEM: BOX BOUNDS xy xz yz pp pp pp
0.0000000000000000e+00 2.3654499999999999e+01 7.8845000000000001e+00
0.0000000000000000e+00 1.3658086643083999e+01 0.0000000000000000e+00
0.0000000000000000e+00 2.5747000000000000e+01 0.0000000000000000e+00
ITEM: ATOMS id type x y z 
18 1 10.3803 6.7821 2.64868 
28 1 5.11001 4.55848 12.8856 
31 1 9.42203 6.44156 0.414941 
62 1 9.10371 5.26268 12.3846 
91 1 9.41594 6.52071 11.9466 
92 1 10.8062 6.19619 10.9666 
106 1 10.3787 6.77993 9.69204 
127 1 10.8176 6.1948 1.37828 
4 1 4.43727 5.79585 13.2832 
5 1 3.15484 5.64608 14.2063 
43 1 4.56369 6.9705 15.479 
52 1 9.09505 5.21944 25.683 
66 1 4.43867 5.79348 24.7999 
67 1 5.08691 6.94341 23.8864 
88 1 5.11127 4.55683 25.1956 
107 1 3.15669 5.6471 23.8752 
116 1 4.56333 6.97089 22.6023 
117 1 5.08836 6.94394 14.1951 
11 1 11.3306 7.58492 3.36722 
12 1 10.4886 8.85663 4.10591 
14 1 8.97658 11.3464 0.405317 
15 1 10.2679 11.4778 1.33539 
16 1 8.3938 8.95916 0.670283 
19 1 10.4686 8.87123 5.5575 
29 1 10.9498 10.134 3.34269 
32 1 8.73973 7.68552 1.20344 
35 1 12.0555 9.6192 2.61051 
45 1 9.23386 8.92675 3.26297 
47 1 12.6768 8.80248 0.546097 
49 1 11.3301 10.9109 0.662931 
51 1 8.85804 10.1613 2.6065 
53 1 11.3284 7.58501 8.97186 
54 1 10.5016 8.85457 8.22856 
56 1 9.0553 11.4159 12.0079 
57 1 8.15939 10.1815 11.0036 
58 1 11.3291 10.9131 11.6637 
60 1 12.2697 8.03604 9.60431 
61 1 10.472 8.86971 6.7778 
73 1 9.22955 8.94033 9.05984 
75 1 12.6774 8.80614 11.79 
76 1 12.273 10.0695 11.012 
79 1 9.21108 7.65121 9.76781 
80 1 8.34154 12.5786 12.3448 
89 1 10.9599 10.1302 8.98815 
93 1 8.44361 8.87219 11.6573 
95 1 10.0235 11.0058 9.7121 
105 1 10.2555 11.486 11.0121 
109 1 8.69958 7.66508 11.0569 
110 1 12.0595 9.61966 9.72329 
114 1 8.85 10.1638 9.69857 
119 1 8.33582 10.185 1.32365 
120 1 12.2677 8.04082 2.73256 
123 1 12.2689 10.0667 1.32217 
124 1 9.22782 7.66451 2.53525 
128 1 10.0402 11.0469 2.64465 
129 2 7.12782 10.4468 11.2218 
6 1 5.02426 8.17287 13.5416 
13 1 9.59329 10.3449 25.0997 
17 1 9.1723 9.01235 25.1196 
30 1 9.89776 7.6965 25.1688 
34 1 11.2654 7.49588 25.1543 
36 1 8.30387 12.5852 25.7552 
46 1 11.6824 8.80932 25.1221 
50 1 10.9528 10.1143 25.1511 
55 1 9.58596 10.3336 12.9853 
59 1 10.9515 10.117 12.9256 
74 1 11.6907 8.82403 12.9608 
78 1 11.2745 7.49471 12.9615 
90 1 9.9451 7.67929 12.9915 
94 1 9.20708 8.96195 12.9326 
101 1 5.02084 8.17234 24.54 
33 1 11.7355 6.60776 0.686663 
77 1 11.7313 6.60653 11.6449 
41 1 17.8624 6.22313 13.5359 
68 1 17.8634 6.22355 24.5459 
103 1 19.1523 6.08796 22.5644 
126 1 19.1524 6.08824 15.5161 
3 1 19.599 6.78133 12.227 
7 1 20.0212 8.11965 12.2464 
10 1 15.1389 8.45781 12.8376 
22 1 19.292 9.43319 12.2992 
26 1 17.9302 9.63478 12.2813 
38 1 17.5098 8.32177 12.25 
42 1 18.2392 7.01916 12.2764 
44 1 20.096 11.9137 12.8101 
48 1 12.5683 7.57086 1.38803 
65 1 19.6006 6.78131 0.109869 
69 1 18.2379 7.02029 0.060114 
82 1 17.5135 8.32177 0.0906765 
86 1 17.9286 9.62996 0.0545902 
96 1 14.0483 8.67448 12.371 
98 1 19.2946 9.43613 0.0355449 
102 1 20.0208 8.12034 0.0887896 
113 1 12.5627 7.57201 10.9527 
130 2 21.9501 11.2182 10.3152 
131 3 22.2154 12.1396 10.3453 
1 1 17.8608 9.5458 16.2404 
2 1 18.702 8.27622 16.9784 
8 1 18.8116 10.3493 15.521 
9 1 18.7221 8.26158 18.4306 
20 1 14.0476 8.67624 25.7125 
21 1 18.2405 6.99742 16.2154 
23 1 19.7707 10.6919 13.2896 
24 1 20.4474 9.44605 14.0756 
25 1 17.4538 10.5249 13.5612 
27 1 17.1361 7.51188 15.4834 
37 1 19.9577 8.20619 16.1344 
39 1 16.512 8.32929 13.4181 
40 1 16.6218 9.55993 14.2606 
63 1 17.8604 9.54623 21.8417 
64 1 18.702 8.27628 21.1034 
70 1 16.9229 9.09094 22.4762 
71 1 18.7218 8.2616 19.6513 
72 1 20.0959 11.9132 25.2721 
81 1 19.9575 8.20617 21.9465 
83 1 16.5079 8.32876 24.6588 
84 1 16.9258 7.0639 23.8855 
85 1 17.4529 10.5265 24.5208 
87 1 19.9629 9.46659 22.6775 
97 1 18.2405 6.99751 21.8664 
99 1 19.7726 10.6885 24.7947 
100 1 18.3716 10.9367 23.8299 
104 1 15.1372 8.45896 25.2427 
108 1 18.8114 10.3497 22.5607 
111 1 20.4498 9.44756 24.0044 
112 1 17.1354 7.51144 22.5988 
115 1 16.6231 9.56414 23.819 
118 1 16.9236 9.09112 15.6049 
121 1 16.9234 7.06679 14.1945 
122 1 19.9619 9.46597 15.4029 
125 1 18.3725 10.9376 14.2515 
ITEM: TIMESTEP
40
ITEM: NUMBER OF ATOMS
131
ITEM: BOX BOUNDS xy xz yz pp pp pp
0.0000000000000000e+00 2.3654499999999999e+01 7.8845000000000001e+00
0.0000000000000000e+00 1.3658086643083999e+01 0.0000000000000000e+00
0.0000000000000000e+00 2.5747000000000000e+01 0.0000000000000000e+00
ITEM: ATOMS id type x y z 
18 1 10.377 6.79606 2.64712 
28 1 5.10627 4.58052 12.8931 
31 1 9.4221 6.43891 0.419997 
62 1 9.06878 5.26285 12.3902 
91 1 9.40878 6.53779 11.9425 
92 1 10.7848 6.21644 10.9693 
106 1 10.3763 6.79146 9.68916 
127 1 10.7963 6.20546 1.37414 
4 1 4.43142 5.80926 13.3002 
5 1 3.15623 5.67513 14.2002 
43 1 4.56093 6.96975 15.4751 
52 1 9.05782 5.21096 25.6716 
66 1 4.43157 5.80924 24.7832 
67 1 5.08359 6.95969 23.8914 
88 1 5.10684 4.58008 25.1878 
107 1 3.15791 5.67511 23.8819 
116 1 4.56065 6.9696 22.606 
117 1 5.08462 6.96117 14.1904 
11 1 11.332 7.5933 3.37485 
12 1 10.4926 8.84086 4.09924 
14 1 8.9879 11.3247 0.421905 
15 1 10.2642 11.454 1.32645 
16 1 8.37464 8.94476 0.653534 
19 1 10.466 8.8694 5.55728 
29 1 10.9514 10.1264 3.34319 
32 1 8.71926 7.6807 1.19421 
35 1 12.0717 9.63286 2.61921 
45 1 9.23454 8.9204 3.25296 
47 1 12.6946 8.82155 0.540752 
49 1 11.3542 10.8994 0.656057 
51 1 8.86106 10.1629 2.60238 
53 1 11.3316 7.58962 8.96548 
54 1 10.5077 8.84372 8.23405 
56 1 9.07325 11.3825 11.9927 
57 1 8.16456 10.1585 11.0122 
58 1 11.3562 10.9011 11.6741 
60 1 12.2723 8.05229 9.59687 
61 1 10.4713 8.86901 6.77646 
73 1 9.23036 8.93344 9.06471 
75 1 12.6928 8.82588 11.7973 
76 1 12.2915 10.0857 10.9964 
79 1 9.1953 7.64698 9.77118 
80 1 8.35156 12.5694 12.35 
89 1 10.9594 10.1225 8.99149 
93 1 8.42141 8.85077 11.6777 
95 1 10.0159 10.9947 9.70981 
105 1 10.2567 11.4633 11.0248 
109 1 8.67331 7.64859 11.0613 
110 1 12.0793 9.63346 9.71269 
114 1 8.84978 10.1595 9.69637 
119 1 8.3384 10.1711 1.31734 
120 1 12.2718 8.05619 2.74309 
123 1 12.2875 10.0832 1.33653 
124 1 9.21915 7.66716 2.51869 
128 1 10.0375 11.0377 2.65133 
129 2 7.10521 10.4508 11.2102 
6 1 5.04698 8.18842 13.5288 
13 1 9.5856 10.3496 25.067 
17 1 9.1626 9.01858 25.1122 
30 1 9.88077 7.70099 25.1799 
34 1 11.251 7.50024 25.1578 
36 1 8.30882 12.5608 25.7627 
46 1 11.6644 8.80634 25.1225 
50 1 10.951 10.1054 25.1548 
55 1 9.58263 10.3342 13.008 
59 1 10.9502 10.1107 12.9252 
74 1 11.6848 8.8199 12.961 
78 1 11.2727 7.49391 12.9622 
90 1 9.93633 7.68102 13.0033 
94 1 9.19836 8.96987 12.9356 
101 1 5.0459 8.18832 24.5522 
33 1 11.7243 6.6337 0.699637 
77 1 11.7185 6.63243 11.6377 
41 1 17.8363 6.23202 13.529 
68 1 17.8373 6.232 24.5528 
103 1 19.1538 6.09464 22.5576 
126 1 19.1534 6.09469 15.5234 
3 1 19.6041 6.78357 12.1837 
7 1 20.0269 8.10969 12.2378 
10 1 15.1398 8.4519 12.8388 
22 1 19.3108 9.43063 12.3079 
26 1 17.9401 9.63159 12.2853 
38 1 17.5279 8.3262 12.2481 
42 1 18.2437 7.02698 12.2833 
44 1 20.133 11.9218 12.799 
48 1 12.553 7.58907 1.40083 
65 1 19.6045 6.78312 0.153335 
69 1 18.2444 7.02706 0.0523653 
82 1 17.5287 8.32454 0.0867329 
86 1 17.9396 9.63058 0.0486976 
96 1 14.0471 8.6812 12.369 
98 1 19.3103 9.43049 0.0266346 
102 1 20.0271 8.10936 0.0967091 
113 1 12.5471 7.58967 10.9409 
130 2 21.9379 11.2213 10.3085 
131 3 22.2162 12.1418 10.3456 
1 1 17.8593 9.53756 16.2477 
2 1 18.6983 8.29061 16.9723 
8 1 18.8137 10.3359 15.5195 
9 1 18.7245 8.26278 18.4314 
20 1 14.0472 8.68177 25.7129 
21 1 18.2404 7.00593 16.2162 
23 1 19.769 10.6943 13.2937 
24 1 20.4718 9.45096 14.0663 
25 1 17.4665 10.4979 13.5724 
27 1 17.1191 7.49898 15.4921 
37 1 19.957 8.21192 16.1254 
39 1 16.4948 8.31045 13.4136 
40 1 16.6375 9.5424 14.2738 
63 1 17.8591 9.53816 21.8344 
64 1 18.698 8.29083 21.1093 
70 1 16.9188 9.0751 22.4655 
71 1 18.7244 8.26289 19.6502 
72 1 20.1329 11.9213 25.2833 
81 1 19.9567 8.21242 21.9561 
83 1 16.4935 8.31113 24.6671 
84 1 16.9057 7.04918 23.8725 
85 1 17.4661 10.499 24.5105 
87 1 19.971 9.46472 22.6901 
97 1 18.2402 7.00627 21.8654 
99 1 19.7705 10.6923 24.7888 
100 1 18.3935 10.9257 23.8347 
104 1 15.1393 8.45453 25.2411 
108 1 18.8141 10.3357 22.5626 
111 1 20.4716 9.45225 24.0154 
112 1 17.1191 7.49878 22.5895 
115 1 16.6382 9.54258 23.8077 
118 1 16.9193 9.07521 15.6157 
121 1 16.9042 7.04922 14.2094 
122 1 19.9706 9.46401 15.3907 
125 1 18.3939 10.9272 14.2471 
ITEM: TIMESTEP
50
ITEM: NUMBER OF ATOMS
131
ITEM: BOX BOUNDS xy xz yz pp pp pp
0.0000000000000000e+00 2.3654499999999999e+01 7.8845000000000001e+00
0.0000000000000000e+00 1.3658086643083999e+01 0.0000000000000000e+00
0.0000000000000000e+00 2.5747000000000000e+01 0.0000000000000000e+00
ITEM: ATOMS id type x y z 
18 1 10.359 6.83665 2.64546 
28 1 5.08543 4.66631 12.9272 
31 1 9.37498 6.41394 0.421241 
62 1 8.96059 5.29308 12.3982 
91 1 9.35826 6.54761 11.9576 
92 1 10.7334 6.27963 10.9738 
106 1 10.3481 6.83555 9.68145 
127 1 10.7529 6.23885 1.37021 
4 1 4.40554 5.90587 13.2589 
5 1 3.11066 5.71713 14.2011 
43 1 4.56804 6.98608 15.4665 
52 1 8.94841 5.23056 25.6496 
66 1 4.40487 5.90784 24.8283 
67 1 5.09196 7.00764 23.9113 
88 1 5.08706 4.66377 25.1552 
107 1 3.10642 5.71641 23.8788 
116 1 4.56922 6.9864 22.6145 
117 1 5.09018 7.0033 14.1695 
11 1 11.3355 7.61319 3.38935 
12 1 10.4894 8.81426 4.09942 
14 1 9.01199 11.2372 0.400705 
15 1 10.2967 11.4178 1.32243 
16 1 8.32112 8.91044 0.620811 
19 1 10.4588 8.85995 5.55724 
29 1 10.9623 10.1079 3.34719 
32 1 8.65302 7.65038 1.16372 
35 1 12.1136 9.67164 2.64941 
45 1 9.23462 8.91739 3.23739 
47 1 12.6832 8.87215 0.556366 
49 1 11.3738 10.8765 0.654036 
51 1 8.85185 10.1453 2.59203 
53 1 11.3376 7.60953 8.94835 
54 1 10.5107 8.82483 8.23166 
56 1 9.05834 11.3129 12.011 
57 1 8.12327 10.1028 11.0272 
58 1 11.3917 10.8867 11.6811 
60 1 12.2772 8.10515 9.56161 
61 1 10.4681 8.86271 6.77596 
73 1 9.22812 8.92009 9.07486 
75 1 12.6859 8.87463 11.7772 
76 1 12.3621 10.1114 10.9769 
79 1 9.15004 7.63559 9.79148 
80 1 8.39596 12.519 12.3552 
89 1 10.9648 10.1024 8.99781 
93 1 8.36802 8.80878 11.7075 
95 1 10.0148 10.9566 9.72913 
105 1 10.308 11.3906 11.0201 
109 1 8.59776 7.62095 11.0747 
110 1 12.1251 9.67391 9.68049 
114 1 8.83727 10.1179 9.72914 
119 1 8.33285 10.1378 1.28976 
120 1 12.2789 8.11 2.7809 
123 1 12.3555 10.1083 1.35083 
124 1 9.18814 7.66784 2.47949 
128 1 10.0467 11.0021 2.64199 
129 2 7.09599 10.4454 11.1623 
6 1 5.10044 8.21361 13.4863 
13 1 9.56142 10.3721 25.0159 
17 1 9.13842 9.01898 25.0951 
30 1 9.8489 7.72044 25.1804 
34 1 11.2078 7.50597 25.1661 
36 1 8.34438 12.4483 25.8051 
46 1 11.6455 8.80742 25.1453 
50 1 10.9231 10.0989 25.1616 
55 1 9.58206 10.3224 13.0295 
59 1 10.943 10.0905 12.9358 
74 1 11.6824 8.82164 12.9613 
78 1 11.2499 7.5022 12.964 
90 1 9.92213 7.68953 13.0402 
94 1 9.18485 8.95725 12.9504 
101 1 5.10018 8.21155 24.5949 
33 1 11.6877 6.69626 0.721499 
77 1 11.6852 6.69147 11.6222 
41 1 17.8212 6.25337 13.5313 
68 1 17.8239 6.25555 24.5508 
103 1 19.1456 6.12886 22.5648 
126 1 19.1469 6.12935 15.5178 
3 1 19.6299 6.7627 12.1659 
7 1 20.0499 8.10933 12.2165 
10 1 15.1382 8.43856 12.8393 
22 1 19.3426 9.41704 12.2994 
26 1 17.9834 9.62984 12.2908 
38 1 17.5379 8.32425 12.2723 
42 1 18.2755 7.03595 12.274 
44 1 20.2406 11.8994 12.7791 
48 1 12.5246 7.66468 1.41165 
65 1 19.6284 6.7645 0.160575 
69 1 18.2774 7.03162 0.0624997 
82 1 17.5349 8.32722 0.0602387 
86 1 17.984 9.62663 0.047008 
96 1 14.0592 8.69738 12.3689 
98 1 19.342 9.41737 0.0345877 
102 1 20.0494 8.1067 0.122293 
113 1 12.5208 7.66131 10.9341 
130 2 21.8988 11.2377 10.2856 
131 3 22.2178 12.1421 10.3472 
1 1 17.8572 9.51807 16.2621 
2 1 18.7035 8.3181 16.9736 
8 1 18.8288 10.2954 15.5201 
9 1 18.7331 8.27077 18.4318 
20 1 14.0562 8.69448 25.7098 
21 1 18.2263 7.02505 16.2217 
23 1 19.8138 10.7201 13.2952 
24 1 20.5417 9.48649 14.0373 
25 1 17.5018 10.4375 13.5956 
27 1 17.0775 7.45879 15.5219 
37 1 19.9533 8.21219 16.1153 
39 1 16.5064 8.25972 13.4303 
40 1 16.6662 9.46643 14.2817 
63 1 17.85 9.51204 21.8134 
64 1 18.7026 8.31807 21.1075 
70 1 16.9096 9.02121 22.4265 
71 1 18.733 8.27086 19.65 
72 1 20.2414 11.898 25.304 
81 1 19.9545 8.21042 21.9654 
83 1 16.5047 8.25799 24.6542 
84 1 16.8363 7.02221 23.8588 
85 1 17.5005 10.4367 24.4842 
87 1 20.0132 9.46183 22.7265 
97 1 18.2269 7.0241 21.8594 
99 1 19.8119 10.7202 24.7887 
100 1 18.4375 10.8984 23.8512 
104 1 15.1377 8.44104 25.2423 
108 1 18.8297 10.3064 22.554 
111 1 20.5458 9.4835 24.0427 
112 1 17.0777 7.45841 22.5615 
115 1 16.6656 9.46843 23.799 
118 1 16.9116 9.02172 15.6554 
121 1 16.8352 7.02255 14.2225 
122 1 20.0037 9.4671 15.3557 
125 1 18.4391 10.8931 14.2419 
ITEM: TIMESTEP
60
ITEM: NUMBER OF ATOMS
131
ITEM: BOX BOUNDS xy xz yz pp pp pp
0.0000000000000000e+00 2.3654499999999999e+01 7.8845000000000001e+00
0.0000000000000000e+00 1.3658086643083999e+01 0.0000000000000000e+00
0.0000000000000000e+00 2.5747000000000000e+01 0.0000000000000000e+00
ITEM: ATOMS id type x y z 
18 1 10.3586 6.83693 2.64395 
28 1 5.09243 4.65816 12.9255 
31 1 9.37337 6.41864 0.421795 
62 1 8.9503 5.29338 12.4 
91 1 9.35593 6.55118 11.9575 
92 1 10.7298 6.28178 10.9745 
106 1 10.3511 6.83634 9.68314 
127 1 10.7498 6.24005 1.36995 
4 1 4.40876 5.88989 13.282 
5 1 3.11745 5.72131 14.2048 
43 1 4.57154 6.98673 15.4605 
52 1 8.93825 5.23088 25.6472 
66 1 4.40964 5.88918 24.8001 
67 1 5.09446 7.01369 23.9041 
88 1 5.09355 4.65648 25.1569 
107 1 3.11628 5.72097 23.8759 
116 1 4.57222 6.98748 22.6209 
117 1 5.09435 7.01246 14.1767 
11 1 11.3364 7.61338 3.38813 
12 1 10.4898 8.81739 4.0987 
14 1 9.01649 11.2392 0.405524 
15 1 10.2958 11.4155 1.32448 
16 1 8.3189 8.9101 0.617781 
19 1 10.4582 8.85891 5.55671 
29 1 10.9606 10.1046 3.34594 
32 1 8.64976 7.64727 1.16484 
35 1 12.1173 9.67433 2.64977 
45 1 9.23201 8.91439 3.2342 
47 1 12.6912 8.8735 0.550447 
49 1 11.3808 10.8759 0.655403 
51 1 8.85005 10.146 2.5857 
53 1 11.3368 7.60978 8.95062 
54 1 10.5104 8.82378 8.23183 
56 1 9.06443 11.316 11.999 
57 1 8.12511 10.1006 11.0304 
58 1 11.3977 10.8783 11.6829 
60 1 12.2762 8.10679 9.56408 
61 1 10.4673 8.86153 6.77508 
73 1 9.22783 8.91885 9.07646 
75 1 12.6945 8.87587 11.7849 
76 1 12.3611 10.1192 10.9736 
79 1 9.14484 7.63733 9.79082 
80 1 8.39894 12.5152 12.3561 
89 1 10.9634 10.101 8.99711 
93 1 8.365 8.80628 11.7122 
95 1 10.0132 10.9523 9.72793 
105 1 10.2938 11.3931 11.0319 
109 1 8.59629 7.61784 11.0768 
110 1 12.1268 9.67344 9.68219 
114 1 8.837 10.122 9.72875 
119 1 8.32622 10.1276 1.29822 
120 1 12.2775 8.10986 2.77845 
123 1 12.3537 10.1136 1.35604 
124 1 9.18536 7.67093 2.48024 
128 1 10.0458 11.0043 2.64155 
129 2 7.08757 10.4463 11.1594 
6 1 5.10235 8.22107 13.487 
13 1 9.5649 10.3572 25.0079 
17 1 9.13218 9.02293 25.0891 
30 1 9.84703 7.71833 25.1801 
34 1 11.2103 7.50427 25.166 
36 1 8.33893 12.4533 25.8045 
46 1 11.641 8.80893 25.1456 
50 1 10.9238 10.1 25.1574 
55 1 9.5771 10.3213 13.0361 
59 1 10.9433 10.0912 12.933 
74 1 11.6807 8.81852 12.9608 
78 1 11.2552 7.49799 12.966 
90 1 9.92237 7.68718 13.0407 
94 1 9.18432 8.95888 12.95 
101 1 5.10154 8.2208 24.5957 
33 1 11.6867 6.69913 0.723551 
77 1 11.6836 6.69648 11.6191 
41 1 17.8117 6.25718 13.5267 
68 1 17.8131 6.25853 24.5558 
103 1 19.1435 6.12545 22.5654 
126 1 19.144 6.12554 15.5169 
3 1 19.6235 6.77984 12.1355 
7 1 20.0587 8.1116 12.2129 
10 1 15.138 8.43689 12.8391 
22 1 19.3441 9.41766 12.2989 
26 1 17.9776 9.63 12.2942 
38 1 17.5483 8.32438 12.2695 
42 1 18.2654 7.03612 12.2781 
44 1 20.2515 11.9019 12.7759 
48 1 12.5219 7.66247 1.41707 
65 1 19.6236 6.77977 0.194366 
69 1 18.2645 7.03596 0.0584954 
82 1 17.5482 8.32494 0.065358 
86 1 17.9774 9.62889 0.04046 
96 1 14.0585 8.69863 12.3678 
98 1 19.3437 9.41659 0.0347338 
102 1 20.058 8.11179 0.123647 
113 1 12.518 7.65888 10.9271 
130 2 21.8947 11.2392 10.283 
131 3 22.2181 12.1424 10.3474 
1 1 17.8545 9.51842 16.2612 
2 1 18.7012 8.31414 16.9722 
8 1 18.8313 10.295 15.5168 
9 1 18.7342 8.27188 18.4322 
20 1 14.0541 8.69622 25.7111 
21 1 18.2295 7.02764 16.22 
23 1 19.8171 10.7157 13.2968 
24 1 20.5431 9.48446 14.0376 
25 1 17.5036 10.4341 13.5958 
27 1 17.0736 7.45718 15.5228 
37 1 19.9579 8.21834 16.1094 
39 1 16.4998 8.25764 13.4259 
40 1 16.6682 9.46894 14.2898 
63 1 17.8538 9.518 21.8202 
64 1 18.7012 8.31402 21.1099 
70 1 16.9131 9.02183 22.4304 
71 1 18.7341 8.27197 19.6498 
72 1 20.2522 11.9 25.3073 
81 1 19.9579 8.21803 21.972 
83 1 16.4983 8.2576 24.6562 
84 1 16.8371 7.01757 23.8533 
85 1 17.5036 10.4331 24.4851 
87 1 20.0067 9.46208 22.7267 
97 1 18.2297 7.02758 21.8616 
99 1 19.8158 10.7151 24.7852 
100 1 18.4421 10.8923 23.84 
104 1 15.1358 8.43919 25.2426 
108 1 18.8309 10.2956 22.5649 
111 1 20.5438 9.48268 24.0433 
112 1 17.0744 7.45712 22.5596 
115 1 16.6684 9.46942 23.7912 
118 1 16.9135 9.02138 15.6515 
121 1 16.8366 7.01774 14.2281 
122 1 20.006 9.46228 15.3546 
125 1 18.4413 10.8918 14.2433 
ITEM: TIMESTEP
70
ITEM: NUMBER OF ATOMS
131
ITEM: BOX BOUNDS xy xz yz pp pp pp
0.0000000000000000e+00 2.3654499999999999e+01 7.8845000000000001e+00
0.0000000000000000e+00 1.3658086643083999e+01 0.0000000000000000e+00
0.0000000000000000e+00 2.5747000000000000e+01 0.0000000000000000e+00
ITEM: ATOMS id type x y z 
18 1 10.3549 6.83967 2.6431 
28 1 5.10197 4.65554 12.9267 
31 1 9.3637 6.42754 0.418846 
62 1 8.91779 5.2975 12.4051 
91 1 9.34943 6.55744 11.9632 
92 1 10.72 6.28965 10.9785 
106 1 10.3463 6.84107 9.68619 
127 1 10.7414 6.24545 1.36807 
4 1 4.41008 5.88729 13.2862 
5 1 3.12479 5.73011 14.1964 
43 1 4.57331 6.98634 15.4556 
52 1 8.90726 5.23824 25.6422 
66 1 4.41074 5.88661 24.7944 
67 1 5.09606 7.02037 23.9129 
88 1 5.10282 4.65435 25.1553 
107 1 3.12422 5.7301 23.8853 
116 1 4.57338 6.98642 22.626 
117 1 5.09564 7.02039 14.1684 
11 1 11.3344 7.61474 3.38469 
12 1 10.4868 8.81831 4.0971 