ITEM: TIMESTEP
0
ITEM: NUMBER OF ATOMS
51
ITEM: BOX BOUNDS pp pp pp
0.0000000000000000e+00 1.1000000000000000e+01
0.0000000000000000e+00 1.1002000000000001e+01
0.0000000000000000e+00 1.1000000000000000e+01
ITEM: ATOMS id type x y z 
10 1 4.603 4.603 4.603 
11 1 3.085 3.085 3.085 
12 1 3.796 3.796 3.796 
46 1 0.726 0.725 0.725 
47 1 2.26 2.259 2.26 
48 1 1.551 1.55 1.55 
19 1 4.546 4.545 6.226 
20 1 3.013 3.013 7.764 
21 1 3.721 3.721 7.053 
31 1 0.668 0.667 10.103 
32 1 2.187 2.187 8.589 
33 1 1.476 1.475 9.298 
16 1 4.546 6.225 4.546 
17 1 3.013 7.765 3.013 
18 1 3.721 7.053 3.722 
25 1 0.668 10.103 0.668 
26 1 2.188 8.589 2.188 
27 1 1.476 9.298 1.476 
50 2 1.046 7.473 0.113 
4 1 4.608 6.169 6.169 
5 1 3.086 7.684 7.684 
6 1 3.799 6.974 6.974 
37 1 0.729 10.046 10.046 
38 1 2.259 8.509 8.508 
39 1 1.552 9.219 9.219 
49 2 0.716 8.745 10.404 
51 3 0.268 6.933 10.844 
13 1 6.225 4.546 4.546 
14 1 7.764 3.013 3.013 
15 1 7.053 3.721 3.722 
28 1 10.102 0.667 0.668 
29 1 8.589 2.187 2.188 
30 1 9.298 1.475 1.476 
1 1 6.168 4.608 6.169 
2 1 7.684 3.086 7.684 
3 1 6.974 3.799 6.974 
40 1 10.045 0.728 10.046 
41 1 8.508 2.259 8.508 
42 1 9.218 1.551 9.218 
7 1 6.169 6.169 4.608 
8 1 7.684 7.684 3.086 
9 1 6.974 6.974 3.799 
43 1 10.046 10.047 0.729 
44 1 8.508 8.509 2.259 
45 1 9.219 9.219 1.552 
22 1 6.229 6.229 6.229 
23 1 7.764 7.765 7.765 
24 1 7.055 7.056 7.055 
34 1 10.108 10.108 10.107 
35 1 8.59 8.59 8.59 
36 1 9.301 9.301 9.3 
ITEM: TIMESTEP
10
ITEM: NUMBER OF ATOMS
51
ITEM: BOX BOUNDS pp pp pp
0.0000000000000000e+00 1.1000000000000000e+01
0.0000000000000000e+00 1.1002000000000001e+01
0.0000000000000000e+00 1.1000000000000000e+01
ITEM: ATOMS id type x y z 
10 1 4.59751 4.59878 4.59801 
11 1 3.08063 3.08057 3.08058 
12 1 3.78814 3.78849 3.7885 
46 1 0.73456 0.727163 0.735726 
47 1 2.26901 2.27082 2.27057 
48 1 1.56779 1.56146 1.56369 
19 1 4.53873 4.53338 6.23342 
20 1 3.00205 3.00268 7.77464 
21 1 3.70945 3.70817 7.06477 
31 1 0.67763 0.72245 10.0898 
32 1 2.20055 2.19982 8.57416 
33 1 1.49186 1.49136 9.28479 
16 1 4.5389 6.23297 4.53376 
17 1 3.00236 7.77528 3.00269 
18 1 3.70856 7.06557 3.70831 
25 1 0.675921 10.1066 0.734728 
26 1 2.2008 8.57532 2.19081 
27 1 1.48303 9.29555 1.50241 
50 2 1.02706 7.43315 0.115968 
4 1 4.60021 6.17706 6.17654 
5 1 3.08723 7.68232 7.68339 
6 1 3.7992 6.97294 6.97265 
37 1 0.722974 10.0416 10.0512 
38 1 2.29545 8.47949 8.47237 
39 1 1.62636 9.23747 9.11705 
49 2 0.655926 8.71685 10.4653 
51 3 0.291197 6.93902 10.8555 
13 1 6.23305 4.53877 4.53883 
14 1 7.77442 3.00229 3.0028 
15 1 7.06604 3.70843 3.70858 
28 1 10.0881 0.677342 0.680687 
29 1 8.58259 2.19397 2.19458 
30 1 9.28798 1.48393 1.48558 
1 1 6.17332 4.60338 6.17433 
2 1 7.68915 3.08088 7.68908 
3 1 6.9821 3.79065 6.98254 
40 1 10.0357 0.735998 10.0387 
41 1 8.49857 2.26886 8.5004 
42 1 9.20762 1.56104 9.20395 
7 1 6.17294 6.17412 4.60349 
8 1 7.68929 7.68926 3.08055 
9 1 6.98241 6.98281 3.79039 
43 1 10.0445 10.0387 0.736974 
44 1 8.49855 8.5016 2.26774 
45 1 9.20998 9.20524 1.56307 
22 1 6.24123 6.23624 6.23596 
23 1 7.77331 7.7745 7.77448 
24 1 7.06721 7.06696 7.06631 
34 1 10.0515 10.104 10.0924 
35 1 8.58289 8.57358 8.57564 
36 1 9.27648 9.29312 9.28861 
ITEM: TIMESTEP
20
ITEM: NUMBER OF ATOMS
51
ITEM: BOX BOUNDS pp pp pp
0.0000000000000000e+00 1.1000000000000000e+01
0.0000000000000000e+00 1.1002000000000001e+01
0.0000000000000000e+00 1.1000000000000000e+01
ITEM: ATOMS id type x y z 
10 1 4.59774 4.59074 4.5905 
11 1 3.08456 3.08142 3.0838 
12 1 3.78846 3.79497 3.78961 
46 1 0.736873 0.723303 0.731987 
47 1 2.27307 2.27513 2.27427 
48 1 1.56914 1.56277 1.56668 
19 1 4.53928 4.52753 6.23421 
20 1 3.00519 3.00626 7.77232 
21 1 3.71293 3.70856 7.05919 
31 1 0.672402 0.744622 10.0974 
32 1 2.21019 2.19065 8.5678 
33 1 1.47844 1.51617 9.29224 
16 1 4.53704 6.23432 4.52736 
17 1 3.00046 7.77493 3.00239 
18 1 3.71441 7.06277 3.70563 
25 1 0.661158 10.1156 0.77901 
26 1 2.19764 8.57074 2.18867 
27 1 1.48739 9.31047 1.51341 
50 2 1.03374 7.42223 0.122943 
4 1 4.6104 6.16105 6.15945 
5 1 3.10854 7.65254 7.66104 
6 1 3.81882 6.95923 6.95785 
37 1 0.731064 9.9605 10.0615 
38 1 2.29968 8.48712 8.46486 
39 1 1.63029 9.29296 9.09917 
49 2 0.615291 8.74369 10.489 
51 3 0.293079 6.95369 10.8524 
13 1 6.23599 4.53716 4.53538 
14 1 7.77398 3.00348 3.00193 
15 1 7.06692 3.70643 3.71006 
28 1 10.0847 0.684027 0.687655 
29 1 8.5853 2.19502 2.19505 
30 1 9.28383 1.48047 1.48363 
1 1 6.18267 4.59075 6.17404 
2 1 7.68848 3.0806 7.68609 
3 1 6.98014 3.7942 6.98478 
40 1 10.0429 0.730311 10.0396 
41 1 8.49731 2.26966 8.49845 
42 1 9.20568 1.56471 9.20404 
7 1 6.18078 6.17469 4.58983 
8 1 7.68802 7.68596 3.08028 
9 1 6.97988 6.98467 3.79467 
43 1 10.049 10.037 0.736706 
44 1 8.49685 8.49837 2.27154 
45 1 9.20536 9.20235 1.56524 
22 1 6.24733 6.23786 6.23622 
23 1 7.77285 7.77541 7.77433 
24 1 7.06847 7.06038 7.06261 
34 1 10.0115 10.1205 10.0931 
35 1 8.58591 8.57204 8.56743 
36 1 9.26091 9.29193 9.29983 
ITEM: TIMESTEP
30
ITEM: NUMBER OF ATOMS
51
ITEM: BOX BOUNDS pp pp pp
0.0000000000000000e+00 1.1000000000000000e+01
0.0000000000000000e+00 1.1002000000000001e+01
0.0000000000000000e+00 1.1000000000000000e+01
ITEM: ATOMS id type x y z 
10 1 4.59831 4.59248 4.58956 
11 1 3.08319 3.08375 3.08421 
12 1 3.79249 3.79222 3.78995 
46 1 0.739911 0.728506 0.733858 
47 1 2.27217 2.27344 2.27367 
48 1 1.56936 1.56455 1.56651 
19 1 4.54083 4.52347 6.23211 
20 1 3.00435 3.00556 7.77196 
21 1 3.71441 3.70728 7.05987 
31 1 0.668169 0.747667 10.1016 
32 1 2.20842 2.1943 8.56787 
33 1 1.48248 1.51247 9.29124 
16 1 4.53941 6.23365 4.52221 
17 1 3.00256 7.77333 3.00267 
18 1 3.71261 7.06224 3.70445 
25 1 0.663132 10.1241 0.783579 
26 1 2.20543 8.57303 2.1874 
27 1 1.47621 9.30578 1.52417 
50 2 1.03917 7.41577 0.127814 
4 1 4.61557 6.16045 6.1561 
5 1 3.10643 7.65499 7.6638 
6 1 3.81918 6.95391 6.9571 
37 1 0.727117 9.93845 10.0685 
38 1 2.30334 8.49279 8.4591 
39 1 1.63446 9.29354 9.09448 
49 2 0.609477 8.76323 10.4809 
51 3 0.291804 6.95864 10.8507 
13 1 6.23796 4.53524 4.53472 
14 1 7.77481 3.00208 3.00202 
15 1 7.06619 3.70845 3.70927 
28 1 10.0836 0.68228 0.687295 
29 1 8.58284 2.19413 2.1942 
30 1 9.2882 1.48222 1.48524 
1 1 6.18241 4.59377 6.17479 
2 1 7.68691 3.08239 7.68922 
3 1 6.98282 3.79112 6.9784 
40 1 10.042 0.735008 10.0365 
41 1 8.498 2.26907 8.49893 
42 1 9.20673 1.56403 9.20561 
7 1 6.18005 6.1757 4.5932 
8 1 7.68665 7.68894 3.083 
9 1 6.98128 6.97793 3.79061 
43 1 10.0407 10.0358 0.741574 
44 1 8.49584 8.4966 2.2709 
45 1 9.20606 9.20411 1.56772 
22 1 6.25145 6.23461 6.23404 
23 1 7.77086 7.77144 7.77154 
24 1 7.06861 7.06112 7.06101 
34 1 10.0078 10.12 10.1005 
35 1 8.58468 8.56569 8.57034 
36 1 9.25557 9.30064 9.29102 
ITEM: TIMESTEP
40
ITEM: NUMBER OF ATOMS
51
ITEM: BOX BOUNDS pp pp pp
0.0000000000000000e+00 1.1000000000000000e+01
0.0000000000000000e+00 1.1002000000000001e+01
0.0000000000000000e+00 1.1000000000000000e+01
ITEM: ATOMS id type x y z 
10 1 4.60016 4.59056 4.58855 
11 1 3.08369 3.08489 3.085 
12 1 3.79444 3.79266 3.79062 
46 1 0.740941 0.732582 0.7331 
47 1 2.27359 2.27462 2.27498 
48 1 1.56921 1.56614 1.56701 
19 1 4.54402 4.51941 6.22938 
20 1 3.00502 3.00543 7.77119 
21 1 3.71608 3.70487 7.05844 
31 1 0.666998 0.747841 10.1046 
32 1 2.20809 2.19365 8.56692 
33 1 1.48115 1.51706 9.29423 
16 1 4.54149 6.23148 4.51725 
17 1 3.00309 7.7726 3.00101 
18 1 3.71393 7.06126 3.7015 
25 1 0.654109 10.1262 0.794627 
26 1 2.20376 8.57223 2.18946 
27 1 1.4774 9.31355 1.53222 
50 2 1.04876 7.40378 0.13647 
4 1 4.61813 6.15448 6.15186 
5 1 3.10807 7.64894 7.66181 
6 1 3.82255 6.94955 6.95515 
37 1 0.720351 9.91034 10.0759 
38 1 2.31111 8.50702 8.44742 
39 1 1.64111 9.30402 9.085 
49 2 0.591521 8.78798 10.4829 
51 3 0.289802 6.96889 10.8477 
13 1 6.24168 4.53164 4.53169 
14 1 7.77731 2.99953 2.99958 
15 1 7.06806 3.70713 3.70726 
28 1 10.0832 0.683249 0.687867 
29 1 8.58274 2.19458 2.19176 
30 1 9.29017 1.47943 1.48793 
1 1 6.1855 4.59052 6.17169 
2 1 7.68914 3.08208 7.68796 
3 1 6.97991 3.78979 6.98125 
40 1 10.0435 0.737468 10.0361 
41 1 8.49728 2.26828 8.4998 
42 1 9.20881 1.56663 9.20532 
7 1 6.18262 6.17306 4.59002 
8 1 7.68647 7.68742 3.08341 
9 1 6.97966 6.97764 3.791 
43 1 10.0326 10.0411 0.749156 
44 1 8.49437 8.49316 2.27247 
45 1 9.20215 9.20471 1.57213 
22 1 6.25578 6.23183 6.23043 
23 1 7.77113 7.77052 7.7698 
24 1 7.07026 7.05749 7.05996 
34 1 9.99826 10.1251 10.1039 
35 1 8.58228 8.56616 8.56943 
36 1 9.25057 9.30141 9.29272 
ITEM: TIMESTEP
50
ITEM: NUMBER OF ATOMS
51
ITEM: BOX BOUNDS pp pp pp
0.0000000000000000e+00 1.1000000000000000e+01
0.0000000000000000e+00 1.1002000000000001e+01
0.0000000000000000e+00 1.1000000000000000e+01
ITEM: ATOMS id type x y z 
10 1 4.6013 4.59074 4.5878 
11 1 3.08326 3.0853 3.0852 
12 1 3.7955 3.79191 3.79014 
46 1 0.741322 0.732902 0.733293 
47 1 2.27379 2.27508 2.27548 
48 1 1.56996 1.56699 1.56733 
19 1 4.5447 4.51803 6.22865 
20 1 3.00493 3.00479 7.77108 
21 1 3.71656 3.70419 7.05831 
31 1 0.667231 0.749345 10.1055 
32 1 2.20726 2.19592 8.56821 
33 1 1.48191 1.51386 9.29237 
16 1 4.5422 6.2307 4.51633 
17 1 3.00368 7.77225 3.00047 
18 1 3.71442 7.06021 3.70079 
25 1 0.653949 10.1294 0.797547 
26 1 2.20525 8.57595 2.19114 
27 1 1.47254 9.31003 1.5329 
50 2 1.05192 7.39902 0.139499 
4 1 4.6202 6.15454 6.15168 
5 1 3.11039 7.64856 7.6628 
6 1 3.81969 6.94684 6.95281 
37 1 0.718804 9.90625 10.0759 
38 1 2.31293 8.51332 8.44326 
39 1 1.64251 9.3065 9.08351 
49 2 0.585517 8.79185 10.4846 
51 3 0.289287 6.97247 10.8469 
13 1 6.24249 4.53064 4.53097 
14 1 7.77746 2.99947 2.99941 
15 1 7.06873 3.70643 3.70653 
28 1 10.0833 0.682303 0.690008 
29 1 8.58325 2.19306 2.19308 
30 1 9.28993 1.48171 1.4847 
1 1 6.18526 4.5895 6.17198 
2 1 7.68776 3.08196 7.68982 
3 1 6.98298 3.78906 6.97804 
40 1 10.0445 0.738227 10.0359 
41 1 8.49784 2.26904 8.49993 
42 1 9.20836 1.56569 9.20562 
7 1 6.18247 6.172 4.58924 
8 1 7.68579 7.68729 3.08397 
9 1 6.97974 6.97595 3.79084 
43 1 10.0304 10.0429 0.751186 
44 1 8.49405 8.49203 2.2732 
45 1 9.20103 9.20578 1.5727 
22 1 6.25648 6.23018 6.23011 
23 1 7.77161 7.76956 7.77018 
24 1 7.07103 7.05796 7.05846 
34 1 9.99667 10.1261 10.1051 
35 1 8.58129 8.56646 8.56917 
36 1 9.2486 9.30176 9.29332 
ITEM: TIMESTEP
60
ITEM: NUMBER OF ATOMS
51
ITEM: BOX BOUNDS pp pp pp
0.0000000000000000e+00 1.1000000000000000e+01
0.0000000000000000e+00 1.1002000000000001e+01
0.0000000000000000e+00 1.1000000000000000e+01
ITEM: ATOMS id type x y z 
10 1 4.60153 4.59064 4.58751 
11 1 3.08329 3.08546 3.08525 
12 1 3.79576 3.7918 3.79023 
46 1 0.741455 0.732958 0.733345 
47 1 2.27362 2.27511 2.27539 
48 1 1.5701 1.56704 1.56737 
19 1 4.54502 4.51763 6.22845 
20 1 3.00502 3.00465 7.77098 
21 1 3.71676 3.70392 7.05809 
31 1 0.667563 0.749021 10.1057 
32 1 2.20718 2.1961 8.56823 
33 1 1.48189 1.51409 9.29247 
16 1 4.54242 6.2304 4.51607 
17 1 3.00387 7.77215 3.00018 
18 1 3.71458 7.05995 3.70045 
25 1 0.653235 10.1299 0.798432 
26 1 2.20504 8.5766 2.19168 
27 1 1.47199 9.31041 1.53342 
50 2 1.05329 7.39687 0.140824 
4 1 4.62048 6.15421 6.15133 
5 1 3.11052 7.64823 7.66278 
6 1 3.81978 6.94636 6.95282 
37 1 0.718243 9.90509 10.0757 
38 1 2.31391 8.51605 8.44143 
39 1 1.64286 9.30744 9.0831 
49 2 0.582979 8.79306 10.4853 
51 3 0.289073 6.97405 10.8466 
13 1 6.24291 4.53014 4.53063 
14 1 7.77777 2.99919 2.99906 
15 1 7.06906 3.70609 3.70625 
28 1 10.0835 0.682645 0.690098 
29 1 8.58338 2.19308 2.19279 
30 1 9.29005 1.4814 1.48486 
1 1 6.18562 4.58916 6.17186 
2 1 7.68779 3.08185 7.68993 
3 1 6.98317 3.78889 6.97794 
40 1 10.0447 0.738287 10.0358 
41 1 8.49789 2.26905 8.50004 
42 1 9.20855 1.56578 9.20576 
7 1 6.18247 6.17175 4.58917 
8 1 7.6856 7.68716 3.08413 
9 1 6.97972 6.97544 3.79082 
43 1 10.0296 10.0437 0.751934 
44 1 8.49387 8.49173 2.27336 
45 1 9.20056 9.20593 1.57325 
22 1 6.2566 6.22971 6.22986 
23 1 7.77154 7.76916 7.76989 
24 1 7.07135 7.05761 7.05808 
34 1 9.99605 10.1264 10.1055 
35 1 8.58084 8.56666 8.56928 
36 1 9.248 9.30206 9.29347 
ITEM: TIMESTEP
70
ITEM: NUMBER OF ATOMS
51
ITEM: BOX BOUNDS pp pp pp
0.0000000000000000e+00 1.1000000000000000e+01
0.0000000000000000e+00 1.1002000000000001e+01
0.0000000000000000e+00 1.1000000000000000e+01
ITEM: ATOMS id type x y z 
10 1 4.60844 4.58711 4.58277 
11 1 3.08438 3.08632 3.08654 
12 1 3.79868 3.79253 3.78969 
46 1 0.746043 0.733452 0.73476 
47 1 2.27445 2.27804 2.27649 
48 1 1.57052 1.56947 1.56845 
19 1 4.55035 4.51036 6.22406 
20 1 3.00593 3.00208 7.76843 
21 1 3.72231 3.6978 7.05475 
31 1 0.672544 0.742513 10.1057 
32 1 2.20528 2.20182 8.56869 
33 1 1.48329 1.51588 9.29263 
16 1 4.54559 6.22484 4.51116 
17 1 3.0075 7.77017 2.99443 
18 1 3.71723 7.05599 3.69255 
25 1 0.638224 10.1364 0.813885 
26 1 2.2005 8.58849 2.20318 
27 1 1.46279 9.31809 1.54533 
50 2 1.08102 7.35247 0.167829 
4 1 4.62372 6.14827 6.14405 
5 1 3.11174 7.64381 7.66103 
6 1 3.82177 6.93764 6.95674 
37 1 0.707557 9.88553 10.0725 
38 1 2.33416 8.57147 8.40524 
39 1 1.64891 9.32399 9.07568 
49 2 0.532582 8.81376 10.4981 
51 3 0.284897 7.0068 10.8411 
13 1 6.25036 4.52 4.52484 
14 1 7.78306 2.99384 2.99322 
15 1 7.07474 3.70148 3.70081 
28 1 10.0852 0.686758 0.691987 
29 1 8.58525 2.19072 2.19063 
30 1 9.29373 1.48142 1.48178 
1 1 6.19175 4.58146 6.16822 
2 1 7.68807 3.0784 7.69293 
3 1 6.98934 3.78606 6.97559 
40 1 10.0497 0.738128 10.0338 
41 1 8.50094 2.26838 8.50263 
42 1 9.21121 1.5673 9.21061 
7 1 6.18281 6.16282 4.58588 
8 1 7.68262 7.68168 3.08562 
9 1 6.97799 6.9702 3.79357 
43 1 10.0133 10.0593 0.766713 
44 1 8.48955 8.48644 2.27861 
45 1 9.19223 9.20791 1.58078 
22 1 6.26096 6.21988 6.22432 
23 1 7.77473 7.76221 7.76391 
24 1 7.07284 7.05236 7.05406 
34 1 9.98587 10.1308 10.1126 
35 1 8.5729 8.56955 8.57091 
36 1 9.23252 9.30981 9.29715 
ITEM: TIMESTEP
80
ITEM: NUMBER OF ATOMS
51
ITEM: BOX BOUNDS pp pp pp
0.0000000000000000e+00 1.1000000000000000e+01
0.0000000000000000e+00 1.1002000000000001e+01
0.0000000000000000e+00 1.1000000000000000e+01
ITEM: ATOMS id type x y z 
10 1 4.60794 4.58781 4.58337 
11 1 3.08373 3.08658 3.0863 
12 1 3.79949 3.79147 3.78936 
46 1 0.746019 0.732972 0.734592 
47 1 2.27342 2.27836 2.27636 
48 1 1.57175 1.56855 1.56815 
19 1 4.55145 4.51044 6.22395 
20 1 3.00765 3.00191 7.76758 
21 1 3.72098 3.69892 7.05432 
31 1 0.674206 0.741007 10.1054 
32 1 2.20485 2.20279 8.56885 
33 1 1.48415 1.51465 9.29233 
16 1 4.5449 6.22449 4.51111 
17 1 3.00801 7.76977 2.99331 
18 1 3.71719 7.05659 3.69364 
25 1 0.637407 10.1361 0.812259 
26 1 2.20016 8.58851 2.20393 
27 1 1.46252 9.31903 1.54702 
50 2 1.08184 7.34878 0.169189 
4 1 4.62288 6.14594 6.14653 
5 1 3.11189 7.64425 7.6634 
6 1 3.81956 6.94183 6.95317 
37 1 0.708083 9.88854 10.0717 
38 1 2.33582 8.57398 8.40387 
39 1 1.6485 9.32382 9.07542 
49 2 0.529752 8.81096 10.4988 
51 3 0.285513 7.00974 10.8415 
13 1 6.25031 4.52018 4.52486 
14 1 7.78333 2.99447 2.99281 
15 1 7.07418 3.70032 3.70152 
28 1 10.0863 0.68712 0.691483 
29 1 8.58549 2.19091 2.18994 
30 1 9.29422 1.48093 1.48222 
1 1 6.19232 4.58132 6.16761 
2 1 7.68981 3.0788 7.6925 
3 1 6.98699 3.7841 6.97691 
40 1 10.0493 0.738311 10.0345 
41 1 8.50017 2.26971 8.50383 
42 1 9.2122 1.56615 9.20805 
7 1 6.18221 6.16333 4.58631 
8 1 7.6828 7.68223 3.08676 
9 1 6.97749 6.96801 3.79157 
43 1 10.0138 10.0576 0.765269 
44 1 8.49015 8.48641 2.27788 
45 1 9.19155 9.20969 1.58158 
22 1 6.2596 6.22069 6.22548 
23 1 7.77495 7.76354 7.76465 
24 1 7.07503 7.05096 7.05375 
34 1 9.98421 10.1311 10.1133 
35 1 8.56985 8.57198 8.57124 
36 1 9.23596 9.30635 9.29758 
ITEM: TIMESTEP
90
ITEM: NUMBER OF ATOMS
51
ITEM: BOX BOUNDS pp pp pp
0.0000000000000000e+00 1.1000000000000000e+01
0.0000000000000000e+00 1.1002000000000001e+01
0.0000000000000000e+00 1.1000000000000000e+01
ITEM: ATOMS id type x y z 
10 1 4.60792 4.58788 4.58315 
11 1 3.08372 3.08652 3.08629 
12 1 3.79948 3.79152 3.78922 
46 1 0.746175 0.732803 0.73455 
47 1 2.27336 2.27842 2.27636 
48 1 1.57179 1.56844 1.56809 
19 1 4.55146 4.51047 6.22401 
20 1 3.00761 3.00172 7.76757 
21 1 3.72099 3.69893 7.05435 
31 1 0.674522 0.740463 10.1052 
32 1 2.20475 2.20295 8.56895 
33 1 1.48434 1.51447 9.29218 
16 1 4.54475 6.22447 4.51129 
17 1 3.00815 7.76969 2.99316 
18 1 3.71726 7.05664 3.69371 
25 1 0.637355 10.1359 0.812061 
26 1 2.20004 8.58871 2.20431 
27 1 1.46241 9.31903 1.54717 
50 2 1.0822 7.34766 0.169659 
4 1 4.62264 6.14605 6.14685 
5 1 3.11174 7.64453 7.66347 
6 1 3.81959 6.94253 6.95293 
37 1 0.708234 9.88921 10.0715 
38 1 2.33624 8.57481 8.40351 
39 1 1.64835 9.32385 9.07541 
49 2 0.528908 8.81029 10.4988 
51 3 0.285609 7.01066 10.8416 
13 1 6.25029 4.52019 4.52495 
14 1 7.78333 2.99451 2.99277 
15 1 7.07415 3.70026 3.70156 
28 1 10.0866 0.687267 0.691228 
29 1 8.58556 2.19092 2.18982 
30 1 9.29436 1.48091 1.48219 
1 1 6.19255 4.58142 6.16763 
2 1 7.68984 3.07873 7.69256 
3 1 6.98708 3.78404 6.97685 
40 1 10.0493 0.738293 10.0345 
41 1 8.50019 2.26993 8.50412 
42 1 9.21243 1.56573 9.20777 
7 1 6.18203 6.16316 4.58646 
8 1 7.68281 7.68196 3.08674 
9 1 6.97737 6.96811 3.79167 
43 1 10.0139 10.0574 0.764996 
44 1 8.49012 8.48659 2.27796 
45 1 9.19149 9.20964 1.58156 
22 1 6.25941 6.22064 6.22558 
23 1 7.77497 7.76337 7.76445 
24 1 7.07503 7.05087 7.05375 
34 1 9.9842 10.1309 10.1134 
35 1 8.5696 8.57217 8.57137 
36 1 9.23584 9.30644 9.29771 
ITEM: TIMESTEP
100
ITEM: NUMBER OF ATOMS
51
ITEM: BOX BOUNDS pp pp pp
0.0000000000000000e+00 1.1000000000000000e+01
0.0000000000000000e+00 1.1002000000000001e+01
0.0000000000000000e+00 1.1000000000000000e+01
ITEM: ATOMS id type x y z 
10 1 4.60792 4.58788 4.58315 
11 1 3.08372 3.0865 3.08629 
12 1 3.79947 3.79154 3.7892 
46 1 0.746191 0.732786 0.734541 
47 1 2.27334 2.27843 2.27635 
48 1 1.57181 1.56841 1.56809 
19 1 4.55146 4.5105 6.22403 
20 1 3.00762 3.00172 7.76757 
21 1 3.72101 3.69891 7.05431 
31 1 0.674557 0.740395 10.1051 
32 1 2.20474 2.20299 8.56895 
33 1 1.48436 1.51442 9.29217 
16 1 4.54474 6.22447 4.51131 
17 1 3.00818 7.76969 2.99314 
18 1 3.71724 7.05663 3.69371 
25 1 0.637344 10.1359 0.81205 
26 1 2.20002 8.58874 2.20437 
27 1 1.46241 9.31902 1.54718 
50 2 1.08225 7.3475 0.169726 
4 1 4.62261 6.14607 6.14688 
5 1 3.11174 7.6446 7.66344 
6 1 3.81957 6.94255 6.95295 
37 1 0.708252 9.88929 10.0714 
38 1 2.3363 8.57492 8.40345 
39 1 1.64834 9.32386 9.07541 
49 2 0.528792 8.8102 10.4989 
51 3 0.285618 7.01079 10.8416 
13 1 6.25028 4.52018 4.52497 
14 1 7.78333 2.99451 2.99278 
15 1 7.07416 3.70026 3.70155 
28 1 10.0866 0.68729 0.691196 
29 1 8.58558 2.19092 2.18981 
30 1 9.29437 1.4809 1.48217 
1 1 6.19255 4.58143 6.16764 
2 1 7.68985 3.07873 7.69257 
3 1 6.98709 3.78402 6.97684 
40 1 10.0493 0.738269 10.0345 
41 1 8.50021 2.26992 8.50415 
42 1 9.21244 1.56572 9.20776 
7 1 6.182 6.16317 4.58647 
8 1 7.6828 7.68195 3.08674 
9 1 6.97737 6.96807 3.79167 
43 1 10.0139 10.0573 0.764961 
44 1 8.4901 8.48661 2.27799 
45 1 9.19149 9.20963 1.58154 
22 1 6.25938 6.22063 6.2256 
23 1 7.77499 7.76335 7.76445 
24 1 7.07503 7.05087 7.05375 
34 1 9.98417 10.1309 10.1134 
35 1 8.56953 8.57222 8.57139 
36 1 9.23587 9.3064 9.29772 
ITEM: TIMESTEP
104
ITEM: NUMBER OF ATOMS
51
ITEM: BOX BOUNDS pp pp pp
0.0000000000000000e+00 1.1000000000000000e+01
0.0000000000000000e+00 1.1002000000000001e+01
0.0000000000000000e+00 1.1000000000000000e+01
ITEM: ATOMS id type x y z 
10 1 4.60792 4.58788 4.58315 
11 1 3.08372 3.0865 3.08629 
12 1 3.79947 3.79154 3.7892 
46 1 0.746191 0.732786 0.73454 
47 1 2.27334 2.27843 2.27635 
48 1 1.57181 1.56841 1.56809 
19 1 4.55146 4.5105 6.22403 
20 1 3.00762 3.00172 7.76757 
21 1 3.72101 3.69891 7.05431 
31 1 0.674558 0.740392 10.1051 
32 1 2.20474 2.20299 8.56895 
33 1 1.48436 1.51442 9.29217 
16 1 4.54474 6.22447 4.51131 
17 1 3.00818 7.76969 2.99314 
18 1 3.71724 7.05663 3.69371 
25 1 0.637343 10.1359 0.81205 
26 1 2.20002 8.58874 2.20438 
27 1 1.46241 9.31902 1.54718 
50 2 1.08225 7.3475 0.169728 
4 1 4.62261 6.14607 6.14688 
5 1 3.11174 7.6446 7.66345 
6 1 3.81957 6.94255 6.95295 
37 1 0.708252 9.88929 10.0714 
38 1 2.3363 8.57492 8.40345 
39 1 1.64834 9.32386 9.07541 
49 2 0.528788 8.8102 10.4989 
51 3 0.285618 7.01079 10.8416 
13 1 6.25028 4.52018 4.52497 
14 1 7.78333 2.9945 2.99278 
15 1 7.07416 3.70026 3.70155 
28 1 10.0866 0.687288 0.691196 
29 1 8.58558 2.19092 2.18981 
30 1 9.29437 1.48091 1.48217 
1 1 6.19255 4.58143 6.16764 
2 1 7.68985 3.07873 7.69257 
3 1 6.98709 3.78402 6.97684 
40 1 10.0493 0.738268 10.0345 
41 1 8.50022 2.26992 8.50415 
42 1 9.21244 1.56572 9.20776 
7 1 6.182 6.16317 4.58647 
8 1 7.6828 7.68195 3.08674 
9 1 6.97737 6.96807 3.79167 
43 1 10.0139 10.0573 0.764961 
44 1 8.4901 8.48661 2.27799 
45 1 9.19149 9.20963 1.58154 
22 1 6.25938 6.22063 6.2256 
23 1 7.77499 7.76335 7.76445 
24 1 7.07503 7.05087 7.05375 
34 1 9.98417 10.1309 10.1134 
35 1 8.56953 8.57222 8.57139 
36 1 9.23587 9.3064 9.29772 
ITEM: TIMESTEP
105
ITEM: NUMBER OF ATOMS
51
ITEM: BOX BOUNDS pp pp pp
0.0000000000000000e+00 1.1000000000000000e+01
0.0000000000000000e+00 1.1002000000000001e+01
0.0000000000000000e+00 1.1000000000000000e+01
ITEM: ATOMS id type x y z 
10 1 4.60792 4.58788 4.58315 
11 1 3.08372 3.0865 3.08629 
12 1 3.79947 3.79154 3.7892 
46 1 0.746191 0.732786 0.73454 
47 1 2.27334 2.27843 2.27635 
48 1 1.57181 1.56841 1.56809 
19 1 4.55146 4.5105 6.22403 
20 1 3.00762 3.00172 7.76757 
21 1 3.72101 3.69891 7.05431 
31 1 0.674558 0.740392 10.1051 
32 1 2.20474 2.20299 8.56895 
33 1 1.48436 1.51442 9.29217 
16 1 4.54474 6.22447 4.51131 
17 1 3.00818 7.76969 2.99314 
18 1 3.71724 7.05663 3.69371 
25 1 0.637344 10.1359 0.81205 
26 1 2.20002 8.58874 2.20438 
27 1 1.46241 9.31902 1.54718 
50 2 1.08225 7.3475 0.169728 
4 1 4.62261 6.14607 6.14688 
5 1 3.11174 7.6446 7.66345 
6 1 3.81957 6.94255 6.95295 
37 1 0.708252 9.88929 10.0714 
38 1 2.3363 8.57492 8.40345 
39 1 1.64834 9.32386 9.07541 
49 2 0.528788 8.8102 10.4989 
51 3 0.285618 7.01079 10.8416 
13 1 6.25028 4.52018 4.52497 
14 1 7.78333 2.9945 2.99278 
15 1 7.07416 3.70026 3.70155 
28 1 10.0866 0.687289 0.691196 
29 1 8.58558 2.19092 2.18981 
30 1 9.29437 1.48091 1.48217 
1 1 6.19255 4.58143 6.16764 
2 1 7.68985 3.07873 7.69257 
3 1 6.98709 3.78402 6.97684 
40 1 10.0493 0.738268 10.0345 
41 1 8.50022 2.26992 8.50415 
42 1 9.21244 1.56572 9.20776 
7 1 6.182 6.16317 4.58647 
8 1 7.6828 7.68195 3.08674 
9 1 6.97737 6.96807 3.79167 
43 1 10.0139 10.0573 0.764961 
44 1 8.4901 8.48661 2.27799 
45 1 9.19149 9.20963 1.58154 
22 1 6.25938 6.22063 6.2256 
23 1 7.77499 7.76335 7.76445 
24 1 7.07503 7.05087 7.05375 
34 1 9.98417 10.1309 10.1134 
35 1 8.56953 8.57222 8.57139 
36 1 9.23587 9.3064 9.29772 
ITEM: TIMESTEP
110
ITEM: NUMBER OF ATOMS
51
ITEM: BOX BOUNDS pp pp pp
-2.7394936321106277e-03 1.1002739493632113e+01
-2.6552802131164155e-03 1.1004655280213116e+01
-2.7499999999999998e-03 1.1002750000000002e+01
ITEM: ATOMS id type x y z 
10 1 4.60748 4.58744 4.58269 
11 1 3.08251 3.08534 3.08508 
12 1 3.79862 3.79071 3.78835 
46 1 0.74382 0.73048 0.732154 
47 1 2.27173 2.27688 2.27474 
48 1 1.56985 1.56651 1.56612 
19 1 4.55099 4.51002 6.22438 
20 1 3.00638 3.00052 7.7687 
21 1 3.72013 3.69805 7.05509 
31 1 0.672149 0.738092 10.1075 
32 1 2.2031 2.2014 8.57049 
33 1 1.48236 1.5125 9.29406 
16 1 4.54426 6.22482 4.51082 
17 1 3.00694 7.77078 2.99188 
18 1 3.71636 7.05738 3.69281 
25 1 0.634915 10.1381 0.809704 
26 1 2.19837 8.59023 2.20273 
27 1 1.4604 9.32087 1.5452 
50 2 1.08006 7.34838 0.167065 
4 1 4.62217 6.14638 6.1472 
5 1 3.11056 7.64564 7.66453 
6 1 3.81873 6.94325 6.95367 
37 1 0.705865 9.89141 10.0737 
38 1 2.33472 8.57641 8.4049 
39 1 1.64642 9.3257 9.0772 
49 2 0.526308 8.8118 10.5014 
51 3 0.283022 7.01152 10.8443 
13 1 6.25065 4.51971 4.52449 
14 1 7.78446 2.9933 2.99152 
15 1 7.07494 3.69939 3.70065 
28 1 10.0889 0.68496 0.688785 
29 1 8.58712 2.18932 2.18815 
30 1 9.29626 1.47897 1.48016 
1 1 6.19289 4.58099 6.16797 
2 1 7.69094 3.07756 7.69366 
3 1 6.98783 3.78319 6.97759 
40 1 10.0516 0.735965 10.0368 
41 1 8.50171 2.26836 8.50565 
42 1 9.21429 1.56382 9.20962 
7 1 6.18234 6.16348 4.58602 
8 1 7.68388 7.683 3.08553 
9 1 6.97811 6.96878 3.79081 
43 1 10.0161 10.0596 0.762589 
44 1 8.49159 8.48805 2.27638 
45 1 9.19333 9.21142 1.57957 
22 1 6.25976 6.22098 6.22596 
23 1 7.77612 7.76444 7.76558 
24 1 7.07581 7.05161 7.05453 
34 1 9.9864 10.1331 10.1157 
35 1 8.57106 8.57371 8.57293 
36 1 9.23773 9.30824 9.29962 
ITEM: TIMESTEP
120
ITEM: NUMBER OF ATOMS
51
ITEM: BOX BOUNDS pp pp pp
-7.3702490106950132e-03 1.1007370249010700e+01
-4.6452280342038181e-03 1.1006645228034204e+01
-8.2500000000000004e-03 1.1008250000000007e+01
ITEM: ATOMS id type x y z 
10 1 4.60714 4.58754 4.58218 
11 1 3.08059 3.08461 3.08278 
12 1 3.79706 3.7899 3.7865 
46 1 0.739523 0.728456 0.727107 
47 1 2.26883 2.27552 2.27132 
48 1 1.56631 1.56487 1.56198 
19 1 4.55052 4.51002 6.22479 
20 1 3.00447 2.9998 7.77077 
21 1 3.71888 3.69761 7.05641 
31 1 0.667638 0.736221 10.1125 
32 1 2.20025 2.20008 8.57364 
33 1 1.47899 1.51119 9.29784 
16 1 4.54377 6.22476 4.51016 
17 1 3.00505 7.77141 2.98954 
18 1 3.71506 7.05772 3.69124 
25 1 0.630354 10.1403 0.804879 
26 1 2.19547 8.59147 2.19931 
27 1 1.45711 9.32215 1.5415 
50 2 1.07637 7.34893 0.16178 
4 1 4.6218 6.1462 6.14747 
5 1 3.10865 7.64635 7.66655 
6 1 3.81717 6.94397 6.95529 
37 1 0.701742 9.8932 10.0784 
38 1 2.3319 8.57781 8.40796 
39 1 1.64338 9.32682 9.08057 
49 2 0.522041 8.81295 10.5063 
51 3 0.278647 7.01217 10.8497 
13 1 6.25095 4.51969 4.52385 
14 1 7.7862 2.99259 2.98919 
15 1 7.07603 3.69895 3.6991 
28 1 10.0932 0.682775 0.683533 
29 1 8.58986 2.18801 2.18468 
30 1 9.2993 1.47763 1.47633 
1 1 6.19305 4.58106 6.16822 
2 1 7.69265 3.07679 7.69574 
3 1 6.98928 3.78244 6.9792 
40 1 10.0557 0.733962 10.0416 
41 1 8.50444 2.26701 8.50886 
42 1 9.21764 1.56217 9.21353 
7 1 6.18249 6.16331 4.58555 
8 1 7.68559 7.68366 3.08327 
9 1 6.9795 6.96943 3.78892 
43 1 10.0202 10.0615 0.75761 
44 1 8.49427 8.48933 2.27297 
45 1 9.1967 9.21302 1.57543 
22 1 6.26005 6.22091 6.22637 
23 1 7.77786 7.76507 7.76765 
24 1 7.07693 7.05193 7.05585 
34 1 9.9903 10.1353 10.1207 
35 1 8.57377 8.57494 8.5761 
36 1 9.24064 9.30952 9.30333 
ITEM: TIMESTEP
130
ITEM: NUMBER OF ATOMS
51
ITEM: BOX BOUNDS pp pp pp
-1.1063998495761203e-02 1.1011063998495768e+01
-2.9119763029383607e-03 1.1004911976302937e+01
-1.3750000000000002e-02 1.1013750000000012e+01
ITEM: ATOMS id type x y z 
10 1 4.60747 4.58872 4.58218 
11 1 3.07923 3.08558 3.0806 
12 1 3.79557 3.79017 3.78444 
46 1 0.735647 0.729315 0.721713 
47 1 2.26605 2.27594 2.26749 
48 1 1.56339 1.56581 1.55775 
19 1 4.55065 4.51108 6.22478 
20 1 3.00343 3.00114 7.7724 
21 1 3.718 3.69853 7.05763 
31 1 0.663384 0.737418 10.1182 
32 1 2.19781 2.20086 8.57694 
33 1 1.47639 1.51267 9.30153 
16 1 4.54382 6.22381 4.50996 
17 1 3.00399 7.7701 2.9876 
18 1 3.71421 7.05691 3.68972 
25 1 0.626053 10.1399 0.799882 
26 1 2.19302 8.59071 2.19583 
27 1 1.45464 9.32073 1.53805 
50 2 1.07347 7.34807 0.156556 
4 1 4.62207 6.14513 6.1473 
5 1 3.10735 7.64558 7.6684 
6 1 3.81566 6.94385 6.95704 
37 1 0.69835 9.89229 10.0831 
38 1 2.32952 8.57739 8.41112 
39 1 1.64107 9.32517 9.08387 
49 2 0.518511 8.81181 10.5113 
51 3 0.275189 7.01194 10.855 
13 1 6.25069 4.52071 4.52368 
14 1 7.78713 2.99395 2.98729 
15 1 7.07678 3.69986 3.6976 
28 1 10.0973 0.683253 0.677821 
29 1 8.59221 2.18877 2.18114 
30 1 9.30154 1.47928 1.47253 
1 1 6.19263 4.58227 6.16796 
2 1 7.69392 3.07779 7.69768 
3 1 6.99054 3.78262 6.98102 
40 1 10.0594 0.734823 10.0468 
41 1 8.50708 2.26742 8.51245 
42 1 9.22043 1.56315 9.21758 
7 1 6.182 6.16214 4.58555 
8 1 7.68681 7.68266 3.08106 
9 1 6.9808 6.96931 3.78697 
43 1 10.0238 10.0607 0.752336 
44 1 8.49687 8.48901 2.26917 
45 1 9.19949 9.21226 1.5712 
22 1 6.2598 6.21993 6.22638 
23 1 7.77885 7.76372 7.7693 
24 1 7.07763 7.05113 7.05709 
34 1 9.99356 10.1348 10.1263 
35 1 8.57602 8.57418 8.5794 
36 1 9.24269 9.30815 9.30687 
ITEM: TIMESTEP
140
ITEM: NUMBER OF ATOMS
51
ITEM: BOX BOUNDS pp pp pp
-1.4645773025652837e-02 1.1014645773025659e+01
-1.4497572488419912e-03 1.1003449757248841e+01
-1.8922083395366641e-02 1.1018922083395383e+01
ITEM: ATOMS id type x y z 
10 1 4.60781 4.58991 4.58222 
11 1 3.07786 3.08646 3.07852 
12 1 3.79418 3.79025 3.78255 
46 1 0.731853 0.729929 0.716535 
47 1 2.26326 2.27606 2.26373 
48 1 1.56062 1.56671 1.55388 
19 1 4.55083 4.51215 6.22467 
20 1 3.00257 3.00249 7.77376 
21 1 3.71707 3.69923 7.05887 
31 1 0.659229 0.738283 10.1235 
32 1 2.19542 2.20139 8.58007 
33 1 1.47385 1.51411 9.30504 
16 1 4.54393 6.22284 4.50985 
17 1 3.00312 7.76875 2.98591 
18 1 3.71328 7.05631 3.68826 
25 1 0.621805 10.1397 0.795125 
26 1 2.19062 8.59006 2.1926 
27 1 1.45231 9.31956 1.53483 
50 2 1.07066 7.34725 0.151665 
4 1 4.62231 6.14405 6.14707 
5 1 3.10605 7.64489 7.67011 
6 1 3.81433 6.94387 6.95867 
37 1 0.695085 9.89166 10.0875 
38 1 2.32726 8.5771 8.41405 
39 1 1.6387 9.32379 9.0871 
49 2 0.515055 8.81086 10.516 
51 3 0.271854 7.01182 10.8601 
13 1 6.25038 4.52176 4.52358 
14 1 7.78789 2.99537 2.98564 
15 1 7.07758 3.70049 3.69616 
28 1 10.1012 0.683568 0.672277 
29 1 8.59445 2.18949 2.17773 
30 1 9.30375 1.48054 1.46914 
1 1 6.19214 4.58341 6.16766 
2 1 7.69511 3.07863 7.69954 
3 1 6.99188 3.78278 6.98269 
40 1 10.0631 0.735437 10.0518 
41 1 8.50978 2.26757 8.51601 
42 1 9.22305 1.56402 9.22128 
7 1 6.18147 6.16103 4.58564 
8 1 7.68801 7.68182 3.07899 
9 1 6.98206 6.96922 3.78508 
43 1 10.0274 10.0602 0.747312 
44 1 8.49952 8.48898 2.26544 
45 1 9.2021 9.21155 1.56732 
22 1 6.25946 6.21897 6.2263 
23 1 7.77965 7.76238 7.77066 
24 1 7.07844 7.05045 7.05836 
34 1 9.9968 10.1346 10.1316 
35 1 8.57821 8.57357 8.58245 
36 1 9.24458 9.30694 9.31028 
ITEM: TIMESTEP
150
ITEM: NUMBER OF ATOMS
51
ITEM: BOX BOUNDS pp pp pp
-1.8300249177168486e-02 1.1018300249177175e+01
-5.4656547776218913e-04 1.1002546565477761e+01
-2.3930541914096565e-02 1.1023930541914117e+01
ITEM: ATOMS id type x y z 
10 1 4.60817 4.59092 4.58234 
11 1 3.0765 3.08699 3.07655 
12 1 3.79267 3.79034 3.78061 
46 1 0.727937 0.730067 0.711424 
47 1 2.26035 2.27582 2.26003 
48 1 1.55785 1.56724 1.55014 