ITEM: TIMESTEP
0
ITEM: NUMBER OF ATOMS
323
ITEM: BOX BOUNDS pp pp pp
0.0000000000000000e+00 1.9018000000000001e+01
0.0000000000000000e+00 1.9018000000000001e+01
0.0000000000000000e+00 1.9018000000000001e+01
ITEM: ATOMS id type x y z 
90 1 1.962 4.752 0.945 
98 1 4.752 3.716 2.699 
106 1 3.716 2.699 4.752 
122 1 4.752 0.945 1.962 
127 1 0.422 4.239 4.239 
130 1 4.239 0.422 4.239 
133 1 0.422 0.422 0.422 
136 1 4.239 4.239 0.422 
158 1 0.945 1.962 4.752 
166 1 2.699 4.752 3.716 
277 1 4.752 1.962 0.945 
284 1 3.716 4.752 2.699 
297 1 2.699 3.716 4.752 
306 1 0.945 4.752 1.962 
315 1 1.962 0.945 4.752 
319 1 4.752 2.699 3.716 
97 1 4.982 3.299 1.363 
121 1 4.982 1.362 3.299 
89 1 3.299 4.982 1.363 
165 1 1.363 4.982 3.299 
10 1 6.117 6.117 0.228 
125 1 8.053 8.053 0.228 
105 1 3.299 1.362 4.982 
157 1 1.363 3.299 4.982 
34 1 6.117 0.228 6.117 
207 1 8.053 0.228 8.053 
22 1 0.228 6.117 6.117 
189 1 0.228 8.053 8.053 
95 1 9.187 3.299 12.807 
96 1 9.418 3.716 11.47 
119 1 9.187 1.362 10.871 
120 1 9.418 0.945 12.208 
279 1 9.418 1.962 13.224 
317 1 9.418 2.699 10.454 
85 1 3.299 9.187 12.807 
86 1 1.962 9.418 13.224 
161 1 1.363 9.187 10.871 
162 1 2.699 9.418 10.454 
281 1 3.716 9.418 11.47 
307 1 0.945 9.418 12.208 
179 1 6.117 8.053 13.942 
180 1 7.454 8.47 14.173 
215 1 8.053 6.117 13.942 
216 1 6.716 5.7 14.173 
264 1 8.47 7.454 14.173 
288 1 5.7 6.716 14.173 
43 1 1.363 1.362 18.696 
44 1 0.945 2.699 18.927 
79 1 3.299 3.299 18.696 
80 1 3.716 1.962 18.927 
227 1 2.699 0.945 18.927 
274 1 1.962 3.716 18.927 
25 1 6.117 4.433 17.562 
26 1 5.7 4.664 16.225 
201 1 8.053 4.433 15.626 
202 1 8.47 4.664 16.963 
242 1 7.454 4.664 17.979 
266 1 6.716 4.664 15.209 
16 1 4.433 6.117 17.562 
17 1 4.664 7.454 17.979 
185 1 4.433 8.053 15.626 
186 1 4.664 6.716 15.209 
245 1 4.664 5.7 16.225 
293 1 4.664 8.47 16.963 
11 1 7.454 5.7 19.015 
39 1 8.994 8.994 18.502 
42 1 5.176 5.176 18.502 
45 1 5.176 8.994 14.685 
48 1 8.994 5.176 14.685 
126 1 6.716 8.47 19.015 
144 1 9.506 6.716 17.979 
148 1 8.47 9.506 16.225 
200 1 5.7 9.506 16.963 
220 1 9.506 7.454 15.209 
240 1 5.7 7.454 19.015 
252 1 8.47 6.716 19.015 
254 1 6.716 9.506 17.979 
257 1 9.506 8.47 16.225 
269 1 9.506 5.7 16.963 
290 1 7.454 9.506 15.209 
93 1 9.187 10.871 1.363 
94 1 9.418 10.454 2.699 
117 1 9.187 12.807 3.299 
118 1 9.418 13.224 1.962 
280 1 9.418 12.208 0.945 
318 1 9.418 11.47 3.716 
55 1 1.363 18.696 1.363 
56 1 2.699 18.927 0.945 
113 1 3.299 18.696 3.299 
114 1 1.962 18.927 3.716 
235 1 0.945 18.927 2.699 
311 1 3.716 18.927 1.962 
4 1 6.117 17.562 4.433 
5 1 7.454 17.979 4.664 
131 1 8.053 15.626 4.433 
132 1 6.716 15.209 4.664 
237 1 5.7 16.225 4.664 
249 1 8.47 16.963 4.664 
103 1 3.299 12.807 9.187 
104 1 3.716 11.47 9.418 
155 1 1.363 10.871 9.187 
156 1 0.945 12.208 9.418 
299 1 2.699 10.454 9.418 
313 1 1.962 13.224 9.418 
149 1 8.053 13.942 6.117 
150 1 8.47 14.173 7.454 
193 1 6.117 13.942 8.053 
194 1 5.7 14.173 6.716 
256 1 6.716 14.173 5.7 
292 1 7.454 14.173 8.47 
13 1 4.433 17.562 6.117 
14 1 4.664 16.225 5.7 
187 1 4.433 15.626 8.053 
188 1 4.664 16.963 8.47 
246 1 4.664 17.979 7.454 
294 1 4.664 15.209 6.716 
35 1 5.7 19.015 7.454 
51 1 8.994 18.502 8.994 
54 1 5.176 18.502 5.176 
57 1 8.994 14.685 5.176 
60 1 5.176 14.685 8.994 
142 1 9.506 16.963 5.7 
184 1 7.454 15.209 9.506 
208 1 8.47 19.015 6.716 
212 1 6.716 17.979 9.506 
218 1 9.506 16.225 8.47 
244 1 7.454 19.015 5.7 
258 1 9.506 15.209 7.454 
261 1 8.47 16.225 9.506 
268 1 6.716 19.015 8.47 
270 1 9.506 17.979 6.716 
285 1 5.7 16.963 9.506 
15 1 0.422 9.931 9.931 
18 1 0.422 13.748 13.748 
21 1 4.239 9.931 13.748 
24 1 4.239 13.748 9.931 
41 1 0.945 11.47 14.26 
50 1 2.699 14.26 13.224 
77 1 3.716 12.208 14.26 
100 1 4.752 10.454 11.47 
110 1 1.962 14.26 10.454 
124 1 4.752 13.224 12.208 
225 1 2.699 13.224 14.26 
234 1 0.945 14.26 11.47 
276 1 1.962 10.454 14.26 
278 1 4.752 12.208 13.224 
310 1 3.716 14.26 12.208 
320 1 4.752 11.47 10.454 
99 1 4.982 10.871 12.807 
123 1 4.982 12.807 10.871 
49 1 1.363 14.491 12.807 
109 1 3.299 14.491 10.871 
183 1 6.117 15.626 9.737 
211 1 8.053 17.562 9.737 
40 1 1.363 12.807 14.491 
76 1 3.299 10.871 14.491 
147 1 8.053 9.737 17.562 
199 1 6.117 9.737 15.626 
19 1 0.228 17.562 17.562 
191 1 0.228 15.626 15.626 
67 1 18.696 1.362 1.363 
68 1 18.927 0.945 2.699 
173 1 18.696 3.299 3.299 
174 1 18.927 3.716 1.962 
231 1 18.927 2.699 0.945 
304 1 18.927 1.962 3.716 
87 1 10.871 9.187 1.363 
88 1 12.208 9.418 0.945 
163 1 12.807 9.187 3.299 
164 1 11.47 9.418 3.716 
282 1 10.454 9.418 2.699 
308 1 13.224 9.418 1.962 
1 1 17.562 6.117 4.433 
2 1 16.225 5.7 4.664 
134 1 15.626 8.053 4.433 
135 1 16.963 8.47 4.664 
238 1 17.979 7.454 4.664 
250 1 15.209 6.716 4.664 
321 2 17.562 6.117 3.083 
322 2 16.48 6.401 2.083 
323 3 17.189 6.576 1.444 
101 1 10.871 1.362 9.187 
102 1 10.454 2.699 9.418 
153 1 12.807 3.299 9.187 
154 1 13.224 1.962 9.418 
300 1 11.47 3.716 9.418 
314 1 12.208 0.945 9.418 
28 1 17.562 4.433 6.117 
29 1 17.979 4.664 7.454 
203 1 15.626 4.433 8.053 
204 1 15.209 4.664 6.716 
241 1 16.225 4.664 5.7 
265 1 16.963 4.664 8.47 
139 1 13.942 8.053 6.117 
140 1 14.173 6.716 5.7 
223 1 13.942 6.117 8.053 
224 1 14.173 7.454 8.47 
260 1 14.173 8.47 7.454 
272 1 14.173 5.7 6.716 
23 1 19.015 7.454 5.7 
63 1 18.502 8.994 8.994 
66 1 18.502 5.176 5.176 
69 1 14.685 5.176 8.994 
72 1 14.685 8.994 5.176 
146 1 15.209 9.506 7.454 
182 1 16.225 8.47 9.506 
190 1 19.015 6.716 8.47 
198 1 17.979 9.506 6.716 
210 1 16.963 5.7 9.506 
248 1 19.015 5.7 7.454 
253 1 16.963 9.506 5.7 
262 1 15.209 7.454 9.506 
286 1 17.979 6.716 9.506 
289 1 16.225 9.506 8.47 
296 1 19.015 8.47 6.716 
27 1 9.931 0.422 9.931 
30 1 13.748 0.422 13.748 
33 1 13.748 4.239 9.931 
36 1 9.931 4.239 13.748 
38 1 13.224 2.699 14.26 
65 1 14.26 0.945 11.47 
74 1 10.454 1.962 14.26 
92 1 12.208 4.752 13.224 
168 1 11.47 4.752 10.454 
172 1 14.26 3.716 12.208 
226 1 11.47 0.945 14.26 
229 1 14.26 2.699 13.224 
275 1 12.208 3.716 14.26 
283 1 10.454 4.752 11.47 
302 1 14.26 1.962 10.454 
305 1 13.224 4.752 12.208 
64 1 14.491 1.362 12.807 
171 1 14.491 3.299 10.871 
91 1 10.871 4.982 12.807 
167 1 12.807 4.982 10.871 
181 1 17.562 8.053 9.737 
209 1 15.626 6.117 9.737 
37 1 12.807 1.362 14.491 
73 1 10.871 3.299 14.491 
31 1 17.562 0.228 17.562 
205 1 15.626 0.228 15.626 
143 1 9.737 8.053 17.562 
219 1 9.737 6.117 15.626 
3 1 9.931 9.931 0.422 
6 1 13.748 13.748 0.422 
9 1 9.931 13.748 4.239 
12 1 13.748 9.931 4.239 
53 1 11.47 14.26 0.945 
62 1 14.26 13.224 2.699 
108 1 10.454 11.47 4.752 
112 1 12.208 14.26 3.716 
160 1 13.224 12.208 4.752 
170 1 14.26 10.454 1.962 
230 1 14.26 11.47 0.945 
233 1 13.224 14.26 2.699 
298 1 11.47 10.454 4.752 
301 1 14.26 12.208 3.716 
309 1 10.454 14.26 1.962 
316 1 12.208 13.224 4.752 
61 1 14.491 12.807 1.363 
169 1 14.491 10.871 3.299 
52 1 12.807 14.491 1.363 
111 1 10.871 14.491 3.299 
7 1 17.562 17.562 0.228 
128 1 15.626 15.626 0.228 
107 1 10.871 12.807 4.982 
159 1 12.807 10.871 4.982 
145 1 15.626 9.737 6.117 
197 1 17.562 9.737 8.053 
141 1 9.737 15.626 6.117 
217 1 9.737 17.562 8.053 
70 1 18.696 12.807 12.807 
71 1 18.927 13.224 11.47 
175 1 18.696 10.871 10.871 
176 1 18.927 10.454 12.208 
232 1 18.927 11.47 13.224 
303 1 18.927 12.208 10.454 
58 1 12.807 18.696 12.807 
59 1 11.47 18.927 13.224 
115 1 10.871 18.696 10.871 
116 1 12.208 18.927 10.454 
236 1 13.224 18.927 11.47 
312 1 10.454 18.927 12.208 
177 1 17.562 15.626 13.942 
178 1 16.225 15.209 14.173 
213 1 15.626 17.562 13.942 
214 1 16.963 17.979 14.173 
263 1 15.209 16.225 14.173 
287 1 17.979 16.963 14.173 
46 1 12.807 12.807 18.696 
47 1 13.224 11.47 18.927 
82 1 10.871 10.871 18.696 
83 1 10.454 12.208 18.927 
228 1 11.47 13.224 18.927 
273 1 12.208 10.454 18.927 
151 1 15.626 13.942 17.562 
152 1 15.209 14.173 16.225 
195 1 17.562 13.942 15.626 
196 1 17.979 14.173 16.963 
255 1 16.963 14.173 17.979 
291 1 16.225 14.173 15.209 
137 1 13.942 15.626 17.562 
138 1 14.173 16.963 17.979 
221 1 13.942 17.562 15.626 
222 1 14.173 16.225 15.209 
259 1 14.173 15.209 16.225 
271 1 14.173 17.979 16.963 
8 1 16.225 17.979 19.015 
20 1 19.015 16.225 17.979 
32 1 17.979 19.015 16.225 
75 1 14.685 14.685 18.502 
78 1 18.502 18.502 18.502 
81 1 18.502 14.685 14.685 
84 1 14.685 18.502 14.685 
129 1 16.963 15.209 19.015 
192 1 19.015 16.963 15.209 
206 1 15.209 19.015 16.963 
239 1 17.979 16.225 19.015 
243 1 16.225 19.015 17.979 
247 1 19.015 17.979 16.225 
251 1 15.209 16.963 19.015 
267 1 16.963 19.015 15.209 
295 1 19.015 15.209 16.963 
ITEM: TIMESTEP
10
ITEM: NUMBER OF ATOMS
323
ITEM: BOX BOUNDS pp pp pp
0.0000000000000000e+00 1.9018000000000001e+01
0.0000000000000000e+00 1.9018000000000001e+01
0.0000000000000000e+00 1.9018000000000001e+01
ITEM: ATOMS id type x y z 
90 1 1.96197 4.75168 0.944822 
98 1 4.75188 3.71569 2.69954 
106 1 3.71624 2.69895 4.75189 
122 1 4.7516 0.945347 1.96166 
127 1 0.428577 4.2322 4.23395 
130 1 4.23934 0.421222 4.2392 
133 1 0.421769 0.42147 0.421567 
136 1 4.23939 4.23921 0.421354 
158 1 0.945136 1.96074 4.75207 
166 1 2.69981 4.75266 3.71578 
277 1 4.75152 1.96165 0.945379 
284 1 3.71627 4.75188 2.69916 
297 1 2.7005 3.71589 4.75236 
306 1 0.945628 4.7519 1.96151 
315 1 1.96201 0.944828 4.75175 
319 1 4.75189 2.69925 3.71568 
97 1 4.98292 3.29871 1.36245 
121 1 4.98293 1.36207 3.2987 
89 1 3.29893 4.983 1.36227 
165 1 1.36548 4.98489 3.2958 
10 1 6.11678 6.11678 0.228 
125 1 8.05322 8.05322 0.227997 
105 1 3.29898 1.36189 4.98296 
157 1 1.36646 3.29482 4.98567 
34 1 6.11682 0.228028 6.11682 
207 1 8.05318 0.228026 8.05318 
22 1 0.222225 6.10942 6.12072 
189 1 0.230109 8.05456 8.05153 
95 1 9.18686 3.29887 12.8071 
96 1 9.41813 3.71566 11.4701 
119 1 9.18686 1.36208 10.871 
120 1 9.41812 0.945394 12.2079 
279 1 9.4182 1.96201 13.2237 
317 1 9.41817 2.69902 10.4542 
85 1 3.29887 9.18686 12.8072 
86 1 1.96203 9.41819 13.2238 
161 1 1.36246 9.18685 10.871 
162 1 2.69922 9.4181 10.4542 
281 1 3.71581 9.4181 11.4702 
307 1 0.945442 9.41815 12.2079 
179 1 6.11682 8.05318 13.9418 
180 1 7.45369 8.46999 14.1731 
215 1 8.05318 6.11682 13.9418 
216 1 6.71632 5.70001 14.1731 
264 1 8.46999 7.45368 14.1731 
288 1 5.70001 6.71631 14.1731 
43 1 1.36253 1.36216 18.6961 
44 1 0.945552 2.69892 18.9273 
79 1 3.29875 3.2987 18.6959 
80 1 3.71555 1.96194 18.9273 
227 1 2.69924 0.945424 18.9273 
274 1 1.96191 3.71547 18.9272 
25 1 6.11681 4.43273 17.5621 
26 1 5.70009 4.66402 16.2252 
201 1 8.05315 4.43276 15.6258 
202 1 8.47 4.66411 16.9627 
242 1 7.45377 4.6641 17.979 
266 1 6.71631 4.66409 15.209 
16 1 4.43273 6.11681 17.5621 
17 1 4.6641 7.45377 17.979 
185 1 4.43276 8.05315 15.6258 
186 1 4.66409 6.71631 15.209 
245 1 4.66402 5.70009 16.2252 
293 1 4.66411 8.47 16.9627 
11 1 7.45372 5.70018 19.0149 
39 1 8.9939 8.9939 18.5026 
42 1 5.1761 5.1761 18.5026 
45 1 5.17607 8.99392 14.685 
48 1 8.99393 5.17607 14.685 
126 1 6.71628 8.46983 19.0149 
144 1 9.5059 6.71623 17.979 
148 1 8.46991 9.50598 16.2252 
200 1 5.7 9.50589 16.9627 
220 1 9.50592 7.45368 15.209 
240 1 5.70018 7.45372 19.0149 
252 1 8.46983 6.71628 19.0149 
254 1 6.71623 9.5059 17.979 
257 1 9.50598 8.46991 16.2252 
269 1 9.50589 5.7 16.9627 
290 1 7.45368 9.50592 15.209 
93 1 9.18687 10.871 1.36242 
94 1 9.4181 10.4542 2.69923 
117 1 9.18686 12.8072 3.29887 
118 1 9.4182 13.2238 1.96203 
280 1 9.41816 12.2079 0.945437 
318 1 9.41809 11.4702 3.71579 
55 1 1.36256 18.696 1.36244 
56 1 2.69926 18.9273 0.945441 
113 1 3.29891 18.6958 3.29879 
114 1 1.9619 18.9271 3.71557 
235 1 0.945391 18.9272 2.6992 
311 1 3.7156 18.9272 1.96183 
4 1 6.11686 17.5621 4.4327 
5 1 7.45376 17.979 4.66408 
131 1 8.05315 15.6258 4.43276 
132 1 6.71632 15.209 4.66409 
237 1 5.70009 16.2252 4.664 
249 1 8.47001 16.9627 4.66411 
103 1 3.29887 12.8072 9.18686 
104 1 3.71581 11.4702 9.4181 
155 1 1.36246 10.871 9.18685 
156 1 0.945442 12.2079 9.41815 
299 1 2.69922 10.4542 9.4181 
313 1 1.96203 13.2238 9.41819 
149 1 8.05318 13.9418 6.11682 
150 1 8.47 14.1731 7.45369 
193 1 6.11682 13.9418 8.05318 
194 1 5.7 14.1731 6.71631 
256 1 6.71631 14.1731 5.7 
292 1 7.45369 14.1731 8.47 
13 1 4.4327 17.5621 6.11685 
14 1 4.664 16.2252 5.70009 
187 1 4.43276 15.6258 8.05315 
188 1 4.66411 16.9627 8.47001 
246 1 4.66408 17.979 7.45376 
294 1 4.66409 15.209 6.71632 
35 1 5.70017 19.0149 7.4537 
51 1 8.99389 18.5026 8.99389 
54 1 5.17611 18.5026 5.17611 
57 1 8.99392 14.685 5.17607 
60 1 5.17607 14.685 8.99392 
142 1 9.50589 16.9627 5.69999 
184 1 7.45368 15.209 9.50592 
208 1 8.46983 19.0149 6.7163 
212 1 6.71624 17.979 9.50591 
218 1 9.50599 16.2252 8.46991 
244 1 7.4537 19.0149 5.70017 
258 1 9.50592 15.209 7.45368 
261 1 8.46991 16.2252 9.50599 
268 1 6.7163 19.0149 8.46983 
270 1 9.50591 17.979 6.71624 
285 1 5.69999 16.9627 9.50589 
15 1 0.421817 9.93059 9.9306 
18 1 0.421634 13.748 13.748 
21 1 4.23916 9.93041 13.748 
24 1 4.23916 13.748 9.93041 
41 1 0.945147 11.4702 14.2598 
50 1 2.69913 14.2599 13.224 
77 1 3.71587 12.2079 14.26 
100 1 4.75169 10.454 11.47 
110 1 1.96194 14.2598 10.454 
124 1 4.75179 13.2239 12.208 
225 1 2.69913 13.224 14.2599 
234 1 0.945147 14.2598 11.4702 
276 1 1.96194 10.454 14.2598 
278 1 4.75179 12.208 13.2239 
310 1 3.71587 14.26 12.2079 
320 1 4.75169 11.47 10.454 
99 1 4.98281 10.871 12.8071 
123 1 4.98281 12.8071 10.871 
49 1 1.36238 14.4912 12.8071 
109 1 3.29887 14.4914 10.8709 
183 1 6.11684 15.6258 9.73724 
211 1 8.05315 17.5621 9.73729 
40 1 1.36238 12.8071 14.4912 
76 1 3.29887 10.8709 14.4914 
147 1 8.0532 9.73726 17.5621 
199 1 6.11684 9.73724 15.6258 
19 1 0.228129 17.5622 17.5622 
191 1 0.228046 15.6257 15.6257 
67 1 18.696 1.36203 1.36231 
68 1 18.9272 0.945001 2.69886 
173 1 18.6939 3.29572 3.29575 
174 1 18.9269 3.71511 1.96166 
231 1 18.9272 2.69866 0.945105 
304 1 18.9264 1.96163 3.71551 
87 1 10.871 9.1869 1.36242 
88 1 12.2079 9.41814 0.945467 
163 1 12.8074 9.18688 3.29913 
164 1 11.47 9.41819 3.71587 
282 1 10.4542 9.41809 2.69926 
308 1 13.2239 9.41823 1.96186 
1 1 17.554 6.12527 4.28409 
2 1 16.1767 5.68617 4.69768 
134 1 15.6217 8.0574 4.43872 
135 1 16.9718 8.46586 4.66075 
238 1 17.9932 7.50243 4.69677 
250 1 15.2132 6.70725 4.6613 
321 2 17.5722 6.10912 3.14008 
322 2 16.4787 6.40259 2.07137 
323 3 17.1853 6.57683 1.43901 
101 1 10.871 1.36208 9.18686 
102 1 10.4542 2.69901 9.41817 
153 1 12.8071 3.29883 9.18684 
154 1 13.2237 1.96202 9.4182 
300 1 11.4701 3.71566 9.41812 
314 1 12.2079 0.945391 9.41812 
28 1 17.5697 4.4384 6.12079 
29 1 17.976 4.65936 7.45434 
203 1 15.6245 4.43068 8.05148 
204 1 15.2037 4.66372 6.72372 
241 1 16.2198 4.67358 5.68849 
265 1 16.9618 4.6639 8.47228 
139 1 13.9407 8.05058 6.11736 
140 1 14.1666 6.71949 5.7061 
223 1 13.9412 6.11739 8.05645 
224 1 14.1726 7.45381 8.46991 
260 1 14.1736 8.47106 7.454 
272 1 14.172 5.69889 6.71518 
23 1 19.0051 7.45923 5.68846 
63 1 18.5012 8.99563 8.99526 
66 1 18.5421 5.13652 5.21117 
69 1 14.6833 5.17742 8.99532 
72 1 14.6893 8.98964 5.16915 
146 1 15.208 9.50542 7.45397 
182 1 16.225 8.46971 9.50639 
190 1 19.0151 6.71719 8.47206 
198 1 17.9801 9.50696 6.71499 
210 1 16.9626 5.69969 9.50626 
248 1 19.0196 5.7032 7.45436 
253 1 16.9595 9.51208 5.706 
262 1 15.2092 7.45388 9.50632 
286 1 17.9793 6.71631 9.50628 
289 1 16.2251 9.50647 8.46982 
296 1 19.0152 8.47501 6.72361 
27 1 9.9306 0.421685 9.9306 
30 1 13.748 0.421478 13.748 
33 1 13.748 4.23917 9.93043 
36 1 9.93042 4.23916 13.748 
38 1 13.2239 2.69891 14.2598 
65 1 14.2598 0.945102 11.4702 
74 1 10.4541 1.96192 14.2598 
92 1 12.208 4.75177 13.2239 
168 1 11.47 4.75166 10.4539 
172 1 14.26 3.71572 12.208 
226 1 11.4702 0.945105 14.2598 
229 1 14.2598 2.69891 13.2239 
275 1 12.208 3.71572 14.26 
283 1 10.4539 4.75165 11.47 
302 1 14.2598 1.96193 10.4541 
305 1 13.2239 4.75177 12.208 
64 1 14.4912 1.36204 12.8071 
171 1 14.4914 3.29883 10.871 
91 1 10.871 4.98279 12.8071 
167 1 12.8071 4.98282 10.871 
181 1 17.5622 8.05341 9.73765 
209 1 15.6256 6.11681 9.73764 
37 1 12.8071 1.36204 14.4912 
73 1 10.871 3.29887 14.4914 
31 1 17.5622 0.228125 17.5622 
205 1 15.6258 0.228069 15.6258 
143 1 9.73726 8.0532 17.5621 
219 1 9.73724 6.11684 15.6258 
3 1 9.93061 9.93058 0.421842 
6 1 13.748 13.748 0.421648 
9 1 9.93042 13.748 4.23917 
12 1 13.7475 9.93085 4.2387 
53 1 11.4702 14.2598 0.945147 
62 1 14.2599 13.224 2.69915 
108 1 10.454 11.47 4.7517 
112 1 12.2079 14.26 3.71585 
160 1 13.2239 12.2082 4.7517 
170 1 14.2598 10.4539 1.96177 
230 1 14.2598 11.4702 0.945177 
233 1 13.224 14.2599 2.69913 
298 1 11.4699 10.4539 4.7516 
301 1 14.2599 12.2081 3.71593 
309 1 10.454 14.2598 1.96194 
316 1 12.2081 13.2239 4.7518 
61 1 14.4912 12.8071 1.36237 
169 1 14.4914 10.8707 3.29912 
52 1 12.8071 14.4912 1.36238 
111 1 10.8709 14.4914 3.29887 
7 1 17.5622 17.5622 0.228128 
128 1 15.6257 15.6257 0.228046 
107 1 10.871 12.8071 4.98279 
159 1 12.8074 10.8706 4.98277 
145 1 15.6286 9.73825 6.11736 
197 1 17.5616 9.73784 8.05646 
141 1 9.73724 15.6258 6.11684 
217 1 9.73729 17.5621 8.05315 
70 1 18.6961 12.8071 12.8071 
71 1 18.9273 13.2239 11.4703 
175 1 18.6959 10.8711 10.8711 
176 1 18.9272 10.4542 12.2079 
232 1 18.9273 11.4703 13.2239 
303 1 18.9272 12.2079 10.4542 
58 1 12.8072 18.696 12.8072 
59 1 11.4702 18.9273 13.2239 
115 1 10.871 18.6958 10.871 
116 1 12.208 18.9271 10.4542 
236 1 13.2239 18.9273 11.4702 
312 1 10.4542 18.9271 12.208 
177 1 17.5622 15.6257 13.9417 
178 1 16.2252 15.209 14.173 
213 1 15.6258 17.5621 13.9417 
214 1 16.9628 17.9791 14.1731 
263 1 15.209 16.2252 14.173 
287 1 17.9791 16.9628 14.1731 
46 1 12.8071 12.8071 18.6961 
47 1 13.2239 11.4703 18.9273 
82 1 10.871 10.871 18.6959 
83 1 10.4542 12.2079 18.9272 
228 1 11.4703 13.2239 18.9273 
273 1 12.2079 10.4542 18.9272 
151 1 15.6257 13.9417 17.5622 
152 1 15.209 14.173 16.2252 
195 1 17.5622 13.9417 15.6257 
196 1 17.9791 14.1731 16.9628 
255 1 16.9628 14.1731 17.9791 
291 1 16.2252 14.173 15.209 
137 1 13.9417 15.6257 17.5622 
138 1 14.1731 16.9628 17.9791 
221 1 13.9417 17.5621 15.6258 
222 1 14.173 16.2252 15.209 
259 1 14.173 15.209 16.2252 
271 1 14.1731 17.9791 16.9628 
8 1 16.2251 17.9788 19.0149 
20 1 19.0149 16.2251 17.9788 
32 1 17.9788 19.0149 16.2251 
75 1 14.685 14.685 18.5026 
78 1 18.5026 18.5026 18.5026 
81 1 18.5026 14.685 14.685 
84 1 14.685 18.5026 14.685 
129 1 16.9627 15.2091 19.0148 
192 1 19.0148 16.9627 15.2091 
206 1 15.2091 19.0149 16.9627 
239 1 17.9788 16.2251 19.0149 
243 1 16.2251 19.0149 17.9788 
247 1 19.0149 17.9788 16.2251 
251 1 15.2091 16.9627 19.0148 
267 1 16.9627 19.0149 15.2091 
295 1 19.0148 15.2091 16.9627 
ITEM: TIMESTEP
20
ITEM: NUMBER OF ATOMS
323
ITEM: BOX BOUNDS pp pp pp
0.0000000000000000e+00 1.9018000000000001e+01
0.0000000000000000e+00 1.9018000000000001e+01
0.0000000000000000e+00 1.9018000000000001e+01
ITEM: ATOMS id type x y z 
90 1 1.96253 4.75198 0.944416 
98 1 4.75211 3.71567 2.69917 
106 1 3.7169 2.6984 4.75223 
122 1 4.75178 0.945463 1.96182 
127 1 0.434695 4.22626 4.2293 
130 1 4.23954 0.421209 4.2392 
133 1 0.421852 0.421278 0.421431 
136 1 4.23952 4.23917 0.42141 
158 1 0.945216 1.96039 4.75316 
166 1 2.69981 4.75378 3.71561 
277 1 4.75168 1.96187 0.945507 
284 1 3.71676 4.75208 2.69857 
297 1 2.70084 3.7159 4.75334 
306 1 0.94591 4.75285 1.9616 
315 1 1.96257 0.944184 4.7521 
319 1 4.75232 2.69898 3.71552 
97 1 4.98292 3.29879 1.36223 
121 1 4.983 1.36186 3.29875 
89 1 3.2993 4.98305 1.36188 
165 1 1.3687 4.98715 3.29274 
10 1 6.11679 6.11679 0.228168 
125 1 8.0532 8.0532 0.228171 
105 1 3.29935 1.36154 4.98307 
157 1 1.37048 3.29077 4.98841 
34 1 6.11679 0.228175 6.11679 
207 1 8.0532 0.228176 8.0532 
22 1 0.216994 6.11399 6.12289 
189 1 0.230563 8.05557 8.05311 
95 1 9.18677 3.29888 12.8072 
96 1 9.41815 3.71572 11.4702 
119 1 9.1868 1.36205 10.8709 
120 1 9.41813 0.945374 12.2079 
279 1 9.41818 1.96208 13.2237 
317 1 9.41812 2.69893 10.4542 
85 1 3.29888 9.18677 12.8072 
86 1 1.96211 9.41818 13.2238 
161 1 1.3624 9.18682 10.8709 
162 1 2.69913 9.41812 10.4541 
281 1 3.71584 9.41813 11.4702 
307 1 0.94544 9.41815 12.2078 
179 1 6.11677 8.05323 13.9417 
180 1 7.45368 8.46997 14.1731 
215 1 8.05323 6.11677 13.9417 
216 1 6.71632 5.70003 14.1731 
264 1 8.46997 7.45368 14.1731 
288 1 5.70003 6.71632 14.1731 
43 1 1.36231 1.36178 18.6959 
44 1 0.94552 2.69891 18.927 
79 1 3.29902 3.29887 18.6958 
80 1 3.71559 1.9619 18.9271 
227 1 2.69928 0.945397 18.9272 
274 1 1.96204 3.71553 18.9269 
25 1 6.11679 4.43267 17.5621 
26 1 5.70014 4.66407 16.2253 
201 1 8.0532 4.43267 15.6258 
202 1 8.47 4.6642 16.9627 
242 1 7.45371 4.66414 17.979 
266 1 6.71633 4.66416 15.209 
16 1 4.43268 6.11678 17.5621 
17 1 4.66414 7.45371 17.979 
185 1 4.43267 8.0532 15.6258 
186 1 4.66416 6.71633 15.209 
245 1 4.66407 5.70014 16.2253 
293 1 4.6642 8.46999 16.9627 
11 1 7.45373 5.70021 19.0148 
39 1 8.99396 8.99395 18.5026 
42 1 5.17604 5.17603 18.5026 
45 1 5.17607 8.99393 14.685 
48 1 8.99393 5.17606 14.685 
126 1 6.71626 8.46979 19.0148 
144 1 9.50586 6.71629 17.979 
148 1 8.46986 9.50592 16.2253 
200 1 5.7 9.5058 16.9627 
220 1 9.50584 7.45367 15.209 
240 1 5.70021 7.45373 19.0148 
252 1 8.46979 6.71626 19.0148 
254 1 6.71629 9.50586 17.979 
257 1 9.50592 8.46986 16.2253 
269 1 9.5058 5.70001 16.9627 
290 1 7.45367 9.50584 15.209 
93 1 9.18686 10.8708 1.36234 
94 1 9.41813 10.4541 2.69914 
117 1 9.18678 12.8072 3.29888 
118 1 9.41818 13.2238 1.96211 
280 1 9.41817 12.2078 0.94543 
318 1 9.41814 11.4702 3.71584 
55 1 1.3623 18.6959 1.36204 
56 1 2.69926 18.9272 0.945403 
113 1 3.29914 18.6956 3.29884 
114 1 1.96208 18.9266 3.71555 
235 1 0.945336 18.9269 2.69907 
311 1 3.71563 18.927 1.96189 
4 1 6.1168 17.5621 4.43266 
5 1 7.45372 17.979 4.66413 
131 1 8.05321 15.6258 4.43267 
132 1 6.71633 15.209 4.66416 
237 1 5.70013 16.2252 4.66407 
249 1 8.47 16.9627 4.66419 
103 1 3.29888 12.8072 9.18677 
104 1 3.71584 11.4702 9.41813 
155 1 1.3624 10.8709 9.18683 
156 1 0.945441 12.2078 9.41815 
299 1 2.69913 10.4541 9.41812 
313 1 1.96212 13.2238 9.41818 
149 1 8.05323 13.9417 6.11677 
150 1 8.46997 14.1731 7.45368 
193 1 6.11677 13.9417 8.05323 
194 1 5.70003 14.1731 6.71632 
256 1 6.71632 14.1731 5.70003 
292 1 7.45368 14.1731 8.46997 
13 1 4.43266 17.5621 6.1168 
14 1 4.66407 16.2252 5.70013 
187 1 4.43267 15.6258 8.0532 
188 1 4.66419 16.9627 8.47 
246 1 4.66413 17.979 7.45372 
294 1 4.66416 15.209 6.71633 
35 1 5.7002 19.0148 7.45373 
51 1 8.99392 18.5026 8.99392 
54 1 5.17609 18.5026 5.17608 
57 1 8.99393 14.685 5.17607 
60 1 5.17607 14.685 8.99393 
142 1 9.50581 16.9627 5.7 
184 1 7.45367 15.209 9.50584 
208 1 8.4698 19.0148 6.71626 
212 1 6.71628 17.979 9.50586 
218 1 9.50593 16.2252 8.46987 
244 1 7.45373 19.0148 5.7002 
258 1 9.50584 15.209 7.45367 
261 1 8.46987 16.2252 9.50593 
268 1 6.71626 19.0148 8.4698 
270 1 9.50586 17.979 6.71628 
285 1 5.7 16.9627 9.50581 
15 1 0.421829 9.93058 9.9306 
18 1 0.421687 13.748 13.748 
21 1 4.23922 9.93042 13.748 
24 1 4.23922 13.748 9.93042 
41 1 0.945111 11.4703 14.2597 
50 1 2.69904 14.2599 13.224 
77 1 3.71586 12.2078 14.26 
100 1 4.75165 10.4542 11.4701 
110 1 1.9621 14.2599 10.4541 
124 1 4.75172 13.2237 12.2079 
225 1 2.69904 13.224 14.2599 
234 1 0.945111 14.2597 11.4703 
276 1 1.9621 10.4541 14.2599 
278 1 4.75172 12.2079 13.2237 
310 1 3.71586 14.26 12.2078 
320 1 4.75165 11.4701 10.4542 
99 1 4.98287 10.871 12.8071 
123 1 4.98287 12.8071 10.871 
49 1 1.36227 14.4912 12.8073 
109 1 3.2989 14.4914 10.8709 
183 1 6.11679 15.6258 9.73733 
211 1 8.0532 17.5621 9.73733 
40 1 1.36227 12.8073 14.4912 
76 1 3.2989 10.8709 14.4914 
147 1 8.05322 9.73732 17.5621 
199 1 6.11679 9.73733 15.6258 
19 1 0.228221 17.5621 17.5621 
191 1 0.228213 15.6258 15.6258 
67 1 18.6957 1.36152 1.3618 
68 1 18.927 0.944424 2.69854 
173 1 18.6915 3.29255 3.29271 
174 1 18.926 3.71498 1.96161 
231 1 18.9269 2.69842 0.944544 
304 1 18.9252 1.96144 3.71541 
87 1 10.8709 9.18688 1.36235 
88 1 12.2079 9.41816 0.945436 
163 1 12.8074 9.18672 3.29899 
164 1 11.4701 9.4182 3.71588 
282 1 10.4541 9.41814 2.69916 
308 1 13.2239 9.41815 1.96198 
1 1 17.5498 6.12963 4.26652 
2 1 16.1826 5.6923 4.70006 
134 1 15.6248 8.05438 4.44054 
135 1 16.9733 8.46716 4.6626 
238 1 17.9871 7.49671 4.69883 
250 1 15.2119 6.70579 4.66334 
321 2 17.5755 6.10648 3.14594 
322 2 16.4775 6.40304 2.06708 
323 3 17.1844 6.57741 1.43631 
101 1 10.8709 1.36205 9.1868 
102 1 10.4542 2.69892 9.41812 
153 1 12.8071 3.29882 9.18674 
154 1 13.2237 1.96209 9.41816 
300 1 11.4702 3.71571 9.41813 
314 1 12.2078 0.945368 9.41813 
28 1 17.5651 4.44366 6.12292 
29 1 17.9758 4.65913 7.45491 
203 1 15.6234 4.43029 8.05316 
204 1 15.2024 4.66394 6.72392 
241 1 16.2208 4.6721 5.69185 
265 1 16.9607 4.66316 8.47239 
139 1 13.9411 8.05206 6.11735 
140 1 14.1661 6.71868 5.7063 
223 1 13.9401 6.11739 8.05656 
224 1 14.173 7.45446 8.47035 
260 1 14.173 8.47064 7.45388 
272 1 14.1704 5.69905 6.71687 
23 1 19.0065 7.4583 5.69176 
63 1 18.5014 8.99559 8.99592 
66 1 18.5415 5.13716 5.20718 
69 1 14.6834 5.17722 8.99593 
72 1 14.6901 8.9889 5.16913 
146 1 15.2084 9.50596 7.45385 
182 1 16.225 8.47 9.50627 
190 1 19.0159 6.71822 8.47215 
198 1 17.9799 9.50852 6.71673 
210 1 16.9626 5.7003 9.50647 
248 1 19.0198 5.70341 7.45491 
253 1 16.9603 9.51248 5.70609 
262 1 15.2089 7.45395 9.50618 
286 1 17.9787 6.71631 9.50653 
289 1 16.2245 9.50611 8.47023 
296 1 19.0149 8.47628 6.72379 
27 1 9.93052 0.42162 9.93053 
30 1 13.7481 0.421483 13.7481 
33 1 13.748 4.23922 9.9305 
36 1 9.93043 4.23923 13.748 
38 1 13.2239 2.69882 14.2599 
65 1 14.2598 0.945049 11.4703 
74 1 10.4541 1.96207 14.2599 
92 1 12.2079 4.75171 13.2238 
168 1 11.4701 4.75164 10.4541 
172 1 14.26 3.71574 12.2078 
226 1 11.4703 0.945054 14.2598 
229 1 14.2599 2.69882 13.2239 
275 1 12.2078 3.71574 14.26 
283 1 10.4541 4.75163 11.4701 
302 1 14.2599 1.96208 10.4541 
305 1 13.2238 4.75172 12.2079 
64 1 14.4913 1.36197 12.8073 
171 1 14.4914 3.29884 10.871 
91 1 10.871 4.98284 12.8071 
167 1 12.807 4.98288 10.8711 
181 1 17.5622 8.05319 9.73799 
209 1 15.6258 6.11668 9.73801 
37 1 12.8073 1.36198 14.4913 
73 1 10.8709 3.2989 14.4914 
31 1 17.5622 0.228211 17.5622 
205 1 15.6258 0.228219 15.6258 
143 1 9.73732 8.05322 17.5621 
219 1 9.73733 6.11679 15.6258 
3 1 9.93055 9.93052 0.421835 
6 1 13.7481 13.748 0.421698 
9 1 9.93043 13.748 4.23923 
12 1 13.7477 9.93071 4.23874 
53 1 11.4703 14.2597 0.94511 
62 1 14.2599 13.224 2.69905 
108 1 10.4542 11.4701 4.75164 
112 1 12.2078 14.26 3.71587 
160 1 13.2237 12.2079 4.75168 
170 1 14.2599 10.4539 1.96197 
230 1 14.2597 11.4703 0.945117 
233 1 13.224 14.2599 2.69903 
298 1 11.4701 10.4542 4.7516 
301 1 14.2599 12.2079 3.71591 
309 1 10.4541 14.2599 1.9621 
316 1 12.2079 13.2237 4.75172 
61 1 14.4912 12.8073 1.36228 
169 1 14.4914 10.8707 3.29901 
52 1 12.8073 14.4912 1.36227 
111 1 10.8709 14.4914 3.2989 
7 1 17.5621 17.5621 0.228218 
128 1 15.6258 15.6258 0.228213 
107 1 10.871 12.8071 4.98286 
159 1 12.8074 10.8707 4.98288 
145 1 15.6271 9.73789 6.11733 
197 1 17.5615 9.73882 8.05654 
141 1 9.73733 15.6258 6.11679 
217 1 9.73733 17.5621 8.0532 
70 1 18.6959 12.8072 12.8072 
71 1 18.9274 13.2238 11.4703 
175 1 18.6959 10.8711 10.8711 
176 1 18.9272 10.4544 12.2079 
232 1 18.9274 11.4703 13.2238 
303 1 18.9272 12.2079 10.4544 
58 1 12.8072 18.6958 12.8072 
59 1 11.4702 18.9273 13.2238 
115 1 10.871 18.6958 10.871 
116 1 12.2079 18.9271 10.4543 
236 1 13.2238 18.9273 11.4702 
312 1 10.4543 18.9272 12.2079 
177 1 17.5622 15.6257 13.9417 
178 1 16.2253 15.209 14.1731 
213 1 15.6258 17.5622 13.9416 
214 1 16.9627 17.9791 14.1732 
263 1 15.2091 16.2253 14.1731 
287 1 17.9791 16.9627 14.1732 
46 1 12.8072 12.8072 18.6959 
47 1 13.2238 11.4703 18.9274 
82 1 10.871 10.871 18.6959 
83 1 10.4544 12.2079 18.9272 
228 1 11.4703 13.2238 18.9274 
273 1 12.2079 10.4544 18.9272 
151 1 15.6257 13.9417 17.5622 
152 1 15.2091 14.1731 16.2253 
195 1 17.5622 13.9417 15.6257 
196 1 17.9791 14.1732 16.9627 
255 1 16.9627 14.1732 17.9791 
291 1 16.2253 14.1731 15.2091 
137 1 13.9417 15.6257 17.5622 
138 1 14.1732 16.9627 17.9791 
221 1 13.9416 17.5622 15.6258 
222 1 14.1731 16.2253 15.2091 
259 1 14.1731 15.209 16.2253 
271 1 14.1732 17.9791 16.9627 
8 1 16.2252 17.9788 19.0149 
20 1 19.0149 16.2252 17.9788 
32 1 17.9788 19.0149 16.2252 
75 1 14.6849 14.6849 18.5027 
78 1 18.5027 18.5027 18.5027 
81 1 18.5027 14.6849 14.6849 
84 1 14.6849 18.5027 14.6849 
129 1 16.9627 15.2091 19.0147 
192 1 19.0148 16.9627 15.2091 
206 1 15.2091 19.0148 16.9627 
239 1 17.9788 16.2252 19.0149 
243 1 16.2252 19.0149 17.9788 
247 1 19.0149 17.9788 16.2252 
251 1 15.2091 16.9627 19.0148 
267 1 16.9627 19.0148 15.2091 
295 1 19.0148 15.2091 16.9627 
ITEM: TIMESTEP
30
ITEM: NUMBER OF ATOMS
323
ITEM: BOX BOUNDS pp pp pp
0.0000000000000000e+00 1.9018000000000001e+01
0.0000000000000000e+00 1.9018000000000001e+01
0.0000000000000000e+00 1.9018000000000001e+01
ITEM: ATOMS id type x y z 
90 1 1.96278 4.75202 0.943881 
98 1 4.75222 3.71529 2.69895 
106 1 3.71844 2.69776 4.75249 
122 1 4.75145 0.945448 1.9618 
127 1 0.442666 4.21838 4.22655 
130 1 4.2399 0.421043 4.23932 
133 1 0.421857 0.42104 0.421083 
136 1 4.23995 4.23928 0.421022 
158 1 0.944527 1.95702 4.75335 
166 1 2.70192 4.75414 3.71609 
277 1 4.7514 1.9617 0.945562 
284 1 3.71737 4.75222 2.69807 
297 1 2.70416 3.71658 4.75346 
306 1 0.945792 4.75249 1.96013 
315 1 1.96322 0.942617 4.7524 
319 1 4.75281 2.69859 3.7149 
97 1 4.98362 3.29872 1.36197 
121 1 4.98361 1.36176 3.29858 
89 1 3.29986 4.98329 1.36116 
165 1 1.3709 4.98558 3.29116 
10 1 6.11662 6.11662 0.228467 
125 1 8.05336 8.05336 0.22846 
105 1 3.3002 1.3608 4.98283 
157 1 1.37476 3.28642 4.98945 
34 1 6.11664 0.228467 6.11664 
207 1 8.05335 0.228459 8.05335 
22 1 0.201962 6.10961 6.11671 
189 1 0.231701 8.05832 8.05567 
95 1 9.18657 3.29898 12.8073 
96 1 9.41821 3.7154 11.4704 
119 1 9.18661 1.36203 10.8708 
120 1 9.41834 0.945518 12.2077 
279 1 9.41836 1.96199 13.2237 
317 1 9.41834 2.69894 10.4543 
85 1 3.29904 9.1866 12.8073 
86 1 1.96209 9.41834 13.2238 
161 1 1.36238 9.18651 10.871 
162 1 2.69918 9.4183 10.4543 
281 1 3.71554 9.41819 11.4704 