ITEM: TIMESTEP
0
ITEM: NUMBER OF ATOMS
74
ITEM: BOX BOUNDS pp pp pp
0.0000000000000000e+00 1.3600000000000000e+01
0.0000000000000000e+00 1.3600000000000000e+01
0.0000000000000000e+00 1.3600000000000000e+01
ITEM: ATOMS id type x y z 
1 1 6.672 0.882 7.682 
2 1 6.673 1.896 8.696 
3 1 6.672 2.763 9.563 
7 1 6.673 5.663 12.463 
8 1 6.672 4.65 11.449 
9 1 6.672 3.783 10.582 
49 1 5.663 6.673 12.463 
50 1 4.65 6.672 11.449 
51 1 3.783 6.672 10.582 
55 1 0.882 6.672 7.682 
56 1 1.896 6.673 8.696 
57 1 2.763 6.672 9.563 
25 1 0.882 7.682 6.672 
26 1 1.896 8.696 6.673 
27 1 2.763 9.563 6.672 
31 1 5.663 12.463 6.673 
32 1 4.65 11.449 6.672 
33 1 3.783 10.582 6.672 
37 1 6.673 12.463 5.663 
38 1 6.672 11.449 4.65 
39 1 6.672 10.582 3.783 
43 1 6.672 7.682 0.882 
44 1 6.673 8.696 1.896 
45 1 6.672 9.563 2.763 
28 1 5.662 7.683 13.473 
29 1 4.649 8.696 13.472 
30 1 3.781 9.563 13.471 
34 1 0.882 12.462 13.473 
35 1 1.896 11.449 13.472 
36 1 2.763 10.582 13.472 
52 1 5.662 13.473 7.683 
53 1 4.649 13.472 8.696 
54 1 3.781 13.472 9.563 
58 1 0.882 13.472 12.462 
59 1 1.896 13.472 11.449 
60 1 2.763 13.472 10.582 
13 1 7.682 6.672 0.882 
14 1 8.696 6.673 1.896 
15 1 9.563 6.672 2.763 
19 1 12.463 6.673 5.663 
20 1 11.449 6.672 4.65 
21 1 10.582 6.672 3.783 
61 1 12.463 5.663 6.673 
62 1 11.449 4.65 6.672 
63 1 10.582 3.783 6.672 
67 1 7.682 0.882 6.672 
68 1 8.696 1.896 6.673 
69 1 9.563 2.763 6.672 
4 1 13.473 5.662 7.683 
5 1 13.472 4.649 8.696 
6 1 13.471 3.781 9.563 
10 1 13.473 0.883 12.462 
11 1 13.473 1.896 11.449 
12 1 13.472 2.763 10.582 
64 1 7.683 5.662 13.473 
65 1 8.696 4.649 13.472 
66 1 9.563 3.781 13.471 
70 1 12.462 0.883 13.473 
71 1 11.449 1.896 13.473 
72 1 10.582 2.763 13.472 
73 2 6.964 1.075 9.733 
74 3 6.964 1.075 10.709 
16 1 7.683 13.473 5.662 
17 1 8.696 13.472 4.649 
18 1 9.563 13.471 3.781 
22 1 12.462 13.473 0.882 
23 1 11.449 13.473 1.896 
24 1 10.582 13.472 2.763 
40 1 13.473 7.683 5.662 
41 1 13.472 8.696 4.649 
42 1 13.471 9.563 3.781 
46 1 13.473 12.462 0.882 
47 1 13.473 11.449 1.896 
48 1 13.472 10.582 2.763 
ITEM: TIMESTEP
10
ITEM: NUMBER OF ATOMS
74
ITEM: BOX BOUNDS pp pp pp
0.0000000000000000e+00 1.3600000000000000e+01
0.0000000000000000e+00 1.3600000000000000e+01
0.0000000000000000e+00 1.3600000000000000e+01
ITEM: ATOMS id type x y z 
1 1 6.65429 0.883526 7.64007 
2 1 6.66768 1.96781 8.62694 
3 1 6.66009 2.864 9.57595 
7 1 6.67299 5.64483 12.4445 
8 1 6.66581 4.65591 11.4505 
9 1 6.67368 3.77853 10.5775 
49 1 5.64116 6.6747 12.4442 
50 1 4.64166 6.67319 11.4395 
51 1 3.77164 6.67122 10.5716 
55 1 0.901029 6.67342 7.70036 
56 1 1.90497 6.67356 8.7029 
57 1 2.7713 6.67183 9.57203 
25 1 0.900137 7.6999 6.67274 
26 1 1.90325 8.70168 6.6736 
27 1 2.77078 9.57133 6.67181 
31 1 5.64828 12.4275 6.6569 
32 1 4.638 11.4386 6.6675 
33 1 3.77059 10.5684 6.67371 
37 1 6.67053 12.438 5.63934 
38 1 6.67264 11.4418 4.64394 
39 1 6.67148 10.574 3.77414 
43 1 6.6716 7.70156 0.900716 
44 1 6.67355 8.70519 1.90663 
45 1 6.67176 9.56967 2.76915 
28 1 5.64211 7.70096 13.4724 
29 1 4.64254 8.7091 13.4753 
30 1 3.77138 9.56914 13.4699 
34 1 0.900176 12.4456 13.4745 
35 1 1.90529 11.4391 13.466 
36 1 2.76964 10.5755 13.4746 
52 1 5.63787 13.4641 7.70256 
53 1 4.63527 13.4718 8.7085 
54 1 3.76791 13.4719 9.57683 
58 1 0.895955 13.4718 12.446 
59 1 1.9068 13.4689 11.4468 
60 1 2.7668 13.4736 10.5736 
13 1 7.70191 6.67343 0.902288 
14 1 8.70406 6.67386 1.90696 
15 1 9.57242 6.67169 2.77125 
19 1 12.4449 6.67419 5.64403 
20 1 11.4403 6.6717 4.641 
21 1 10.573 6.67215 3.77372 
61 1 12.4483 5.64676 6.67269 
62 1 11.4412 4.64656 6.67203 
63 1 10.5757 3.77412 6.67197 
67 1 7.70741 0.905706 6.65682 
68 1 8.71316 1.90811 6.67209 
69 1 9.57798 2.7802 6.67215 
4 1 13.4744 5.64408 7.69991 
5 1 13.4754 4.64436 8.70913 
6 1 13.4695 3.77087 9.56951 
10 1 13.4708 0.900447 12.4448 
11 1 13.4788 1.90556 11.438 
12 1 13.4684 2.7702 10.5747 
64 1 7.70263 5.64162 13.4755 
65 1 8.7107 4.64377 13.4753 
66 1 9.57079 3.76885 13.4694 
70 1 12.4436 0.900463 13.4721 
71 1 11.4387 1.90441 13.4791 
72 1 10.5746 2.77024 13.4682 
73 2 6.97558 0.978434 9.81975 
74 3 6.97978 1.04583 10.7837 
16 1 7.69781 13.4517 5.62444 
17 1 8.70961 13.4707 4.63998 
18 1 9.57572 13.4708 3.76604 
22 1 12.444 13.4716 0.899668 
23 1 11.4409 13.479 1.90258 
24 1 10.575 13.4687 2.7699 
40 1 13.4737 7.69991 5.64366 
41 1 13.4753 8.70847 4.64446 
42 1 13.4696 9.56932 3.77133 
46 1 13.4704 12.4443 0.900503 
47 1 13.4787 11.4384 1.90498 
48 1 13.4685 10.575 2.77001 
ITEM: TIMESTEP
20
ITEM: NUMBER OF ATOMS
74
ITEM: BOX BOUNDS pp pp pp
0.0000000000000000e+00 1.3600000000000000e+01
0.0000000000000000e+00 1.3600000000000000e+01
0.0000000000000000e+00 1.3600000000000000e+01
ITEM: ATOMS id type x y z 
1 1 6.65208 0.900594 7.65203 
2 1 6.63774 2.08784 8.47673 
3 1 6.66566 2.83643 9.55763 
7 1 6.67298 5.65136 12.4522 
8 1 6.66528 4.65158 11.4459 
9 1 6.66953 3.77897 10.5808 
49 1 5.64134 6.6766 12.4453 
50 1 4.63772 6.67267 11.4376 
51 1 3.77247 6.67163 10.5715 
55 1 0.900888 6.67265 7.7006 
56 1 1.90753 6.67463 8.705 
57 1 2.77159 6.67123 9.57237 
25 1 0.898793 7.69902 6.6721 
26 1 1.90449 8.70264 6.67418 
27 1 2.76905 9.56965 6.67173 
31 1 5.64474 12.4361 6.66832 
32 1 4.63603 11.4324 6.67056 
33 1 3.76858 10.5684 6.67161 
37 1 6.67042 12.4385 5.64115 
38 1 6.675 11.438 4.63522 
39 1 6.67038 10.57 3.7723 
43 1 6.67232 7.6998 0.899731 
44 1 6.67312 8.70341 1.90416 
45 1 6.67202 9.56911 2.76933 
28 1 5.64459 7.70101 13.4723 
29 1 4.64079 8.70903 13.4787 
30 1 3.77113 9.57047 13.4691 
34 1 0.898138 12.4447 13.4739 
35 1 1.90865 11.4424 13.4659 
36 1 2.76935 10.5719 13.4737 
52 1 5.63922 13.4598 7.69856 
53 1 4.63784 13.4742 8.70979 
54 1 3.76957 13.4718 9.57301 
58 1 0.896997 13.4727 12.4474 
59 1 1.9062 13.4656 11.445 
60 1 2.76736 13.475 10.5749 
13 1 7.70078 6.67245 0.901003 
14 1 8.70425 6.67628 1.90837 
15 1 9.57249 6.67061 2.77117 
19 1 12.4454 6.67427 5.64418 
20 1 11.4387 6.67251 4.63869 
21 1 10.5726 6.67166 3.77328 
61 1 12.4479 5.64799 6.67323 
62 1 11.4398 4.6453 6.66716 
63 1 10.5777 3.77594 6.67491 
67 1 7.7044 0.897978 6.6516 
68 1 8.70823 1.91118 6.66911 
69 1 9.57607 2.77406 6.67311 
4 1 13.4746 5.64548 7.70152 
5 1 13.479 4.6418 8.70957 
6 1 13.4676 3.77168 9.57098 
10 1 13.4713 0.90159 12.4459 
11 1 13.4782 1.90277 11.4355 
12 1 13.4686 2.77252 10.5741 
64 1 7.70435 5.64476 13.4773 
65 1 8.71077 4.64075 13.4782 
66 1 9.57192 3.77053 13.4679 
70 1 12.4451 0.901273 13.4727 
71 1 11.4353 1.90244 13.4785 
72 1 10.574 2.77236 13.4684 
73 2 7.00041 0.883889 9.93276 
74 3 6.98539 1.03545 10.8278 
16 1 7.70248 13.4632 5.63444 
17 1 8.71132 13.4698 4.63328 
18 1 9.57711 13.4696 3.76769 
22 1 12.4464 13.4729 0.898927 
23 1 11.4378 13.4788 1.8999 
24 1 10.5769 13.4693 2.77037 
40 1 13.4722 7.70066 5.64396 
41 1 13.4787 8.70917 4.64187 
42 1 13.4678 9.57072 3.77211 
46 1 13.4723 12.4446 0.901446 
47 1 13.4781 11.4351 1.90295 
48 1 13.4686 10.5739 2.77278 
ITEM: TIMESTEP
30
ITEM: NUMBER OF ATOMS
74
ITEM: BOX BOUNDS pp pp pp
0.0000000000000000e+00 1.3600000000000000e+01
0.0000000000000000e+00 1.3600000000000000e+01
0.0000000000000000e+00 1.3600000000000000e+01
ITEM: ATOMS id type x y z 
1 1 6.60453 0.984964 7.60464 
2 1 6.6399 2.09697 8.53192 
3 1 6.65048 2.81561 9.51544 
7 1 6.6703 5.62675 12.4303 
8 1 6.67558 4.62785 11.4341 
9 1 6.66511 3.76657 10.5569 
49 1 5.64842 6.67085 12.4502 
50 1 4.64411 6.67155 11.4354 
51 1 3.77577 6.67156 10.5802 
55 1 0.899149 6.6715 7.69985 
56 1 1.90998 6.67327 8.70856 
57 1 2.77232 6.6724 9.57159 
25 1 0.898325 7.69648 6.67406 
26 1 1.90791 8.70689 6.67338 
27 1 2.77066 9.57107 6.67207 
31 1 5.65036 12.4486 6.68782 
32 1 4.64349 11.4375 6.67397 
33 1 3.77703 10.577 6.67108 
37 1 6.66322 12.4385 5.64877 
38 1 6.67059 11.4367 4.63833 
39 1 6.67205 10.5761 3.77547 
43 1 6.67312 7.69766 0.896497 
44 1 6.6739 8.70149 1.9066 
45 1 6.67095 9.56725 2.76675 
28 1 5.64513 7.69804 13.4684 
29 1 4.63906 8.70452 13.4752 
30 1 3.77446 9.57067 13.4737 
34 1 0.900509 12.4479 13.4693 
35 1 1.90628 11.4392 13.4701 
36 1 2.77019 10.5736 13.4689 
52 1 5.6564 13.491 7.70283 
53 1 4.64558 13.4767 8.70171 
54 1 3.78069 13.4749 9.56487 
58 1 0.903076 13.4722 12.4429 
59 1 1.91205 13.4709 11.4335 
60 1 2.77552 13.4709 10.5696 
13 1 7.69929 6.66906 0.896147 
14 1 8.70452 6.67361 1.9061 
15 1 9.56942 6.67288 2.7703 
19 1 12.4473 6.6722 5.64426 
20 1 11.4301 6.66483 4.64557 
21 1 10.5794 6.67504 3.77078 
61 1 12.4453 5.64648 6.67202 
62 1 11.4382 4.63917 6.67138 
63 1 10.5745 3.77442 6.67273 
67 1 7.69597 0.905372 6.65011 
68 1 8.70533 1.90812 6.66239 
69 1 9.57017 2.76941 6.67421 
4 1 13.4702 5.6447 7.6987 
5 1 13.4737 4.63776 8.70809 
6 1 13.4705 3.7758 9.57238 
10 1 13.4761 0.89767 12.4451 
11 1 13.4732 1.90602 11.4362 
12 1 13.4709 2.76944 10.5721 
64 1 7.69431 5.6475 13.4704 
65 1 8.70537 4.6414 13.4724 
66 1 9.56858 3.77809 13.4705 
70 1 12.4479 0.901063 13.4706 
71 1 11.4365 1.90565 13.4721 
72 1 10.5707 2.77079 13.4711 
73 2 7.02836 0.754744 10.0098 
74 3 6.9745 1.12166 10.8624 
16 1 7.69997 13.4608 5.64252 
17 1 8.71128 13.464 4.63394 
18 1 9.57249 13.4689 3.77278 
22 1 12.4516 13.4731 0.894193 
23 1 11.4398 13.4736 1.90288 
24 1 10.5767 13.4728 2.76677 
40 1 13.4722 7.70105 5.64405 
41 1 13.4735 8.70891 4.63719 
42 1 13.4706 9.57287 3.7753 
46 1 13.4755 12.4433 0.899733 
47 1 13.473 11.4372 1.90484 
48 1 13.4709 10.5719 2.76999 
ITEM: TIMESTEP
40
ITEM: NUMBER OF ATOMS
74
ITEM: BOX BOUNDS pp pp pp
0.0000000000000000e+00 1.3600000000000000e+01
0.0000000000000000e+00 1.3600000000000000e+01
0.0000000000000000e+00 1.3600000000000000e+01
ITEM: ATOMS id type x y z 
1 1 6.60585 0.982279 7.60395 
2 1 6.63187 2.08452 8.50932 
3 1 6.65064 2.81034 9.50306 
7 1 6.67003 5.64022 12.4444 
8 1 6.67451 4.63273 11.4382 
9 1 6.66621 3.77659 10.5659 
49 1 5.6504 6.67122 12.4446 
50 1 4.64118 6.66422 11.4426 
51 1 3.77702 6.67541 10.5756 
55 1 0.898413 6.67196 7.6984 
56 1 1.9072 6.67332 8.70597 
57 1 2.77243 6.67255 9.57208 
25 1 0.898161 7.6969 6.67346 
26 1 1.90647 8.7053 6.67358 
27 1 2.77083 9.57149 6.67184 
31 1 5.65221 12.4505 6.68947 
32 1 4.6445 11.4396 6.67603 
33 1 3.77745 10.5765 6.67126 
37 1 6.66494 12.4435 5.65286 
38 1 6.66988 11.4365 4.6391 
39 1 6.67167 10.5726 3.77202 
43 1 6.67271 7.69516 0.895177 
44 1 6.6747 8.70254 1.9055 
45 1 6.67082 9.56921 2.76967 
28 1 5.64776 7.69662 13.4713 
29 1 4.63992 8.70562 13.4741 
30 1 3.77426 9.56984 13.4738 
34 1 0.89906 12.4487 13.4699 
35 1 1.90565 11.4397 13.4699 
36 1 2.76988 10.574 13.4693 
52 1 5.65563 13.493 7.69376 
53 1 4.64654 13.4798 8.70012 
54 1 3.78201 13.4739 9.56562 
58 1 0.902457 13.4726 12.443 
59 1 1.91045 13.4709 11.4353 
60 1 2.77537 13.4711 10.5695 
13 1 7.69687 6.67089 0.895911 
14 1 8.70438 6.67332 1.90506 
15 1 9.56982 6.67336 2.76987 
19 1 12.4468 6.67396 5.64762 
20 1 11.4363 6.66265 4.64239 
21 1 10.5754 6.67595 3.7728 
61 1 12.4473 5.64821 6.67173 
62 1 11.4395 4.64085 6.67145 
63 1 10.5749 3.77458 6.6732 
67 1 7.68837 0.905287 6.64668 
68 1 8.70429 1.90923 6.66038 
69 1 9.5733 2.77104 6.67438 
4 1 13.4731 5.64762 7.69803 
5 1 13.4731 4.64106 8.70619 
6 1 13.4708 3.7755 9.57139 
10 1 13.4755 0.897305 12.4471 
11 1 13.4716 1.9031 11.4382 
12 1 13.4718 2.76907 10.5734 
64 1 7.69541 5.6455 13.4694 
65 1 8.70442 4.64182 13.4723 
66 1 9.56961 3.77669 13.4706 
70 1 12.4487 0.899962 13.4701 
71 1 11.4375 1.90549 13.4723 
72 1 10.5716 2.77001 13.4709 
73 2 7.03221 0.737811 10.0298 
74 3 6.97438 1.12272 10.863 
16 1 7.69954 13.4555 5.64145 
17 1 8.706 13.4636 4.63481 
18 1 9.57489 13.4684 3.77266 
22 1 12.4505 13.4738 0.894091 
23 1 11.4425 13.4743 1.90079 
24 1 10.5769 13.4724 2.76658 
40 1 13.4741 7.69825 5.64776 
41 1 13.4732 8.70687 4.64103 
42 1 13.4708 9.57173 3.77509 
46 1 13.4749 12.4463 0.895917 
47 1 13.4746 11.4391 1.90409 
48 1 13.4701 10.573 2.76873 
ITEM: TIMESTEP
46
ITEM: NUMBER OF ATOMS
74
ITEM: BOX BOUNDS pp pp pp
0.0000000000000000e+00 1.3600000000000000e+01
0.0000000000000000e+00 1.3600000000000000e+01
0.0000000000000000e+00 1.3600000000000000e+01
ITEM: ATOMS id type x y z 
1 1 6.60587 0.982303 7.60391 
2 1 6.63185 2.08468 8.50945 
3 1 6.65063 2.81035 9.50304 
7 1 6.67003 5.64019 12.4444 
8 1 6.67451 4.63267 11.4381 
9 1 6.66621 3.77661 10.5659 
49 1 5.65035 6.67123 12.4446 
50 1 4.64115 6.66425 11.4425 
51 1 3.77702 6.67539 10.5757 
55 1 0.898441 6.67196 7.69843 
56 1 1.90726 6.67332 8.70603 
57 1 2.77239 6.67255 9.57205 
25 1 0.898182 7.69694 6.67345 
26 1 1.90652 8.70534 6.67358 
27 1 2.77082 9.57148 6.67184 
31 1 5.65218 12.4504 6.68944 
32 1 4.64444 11.4396 6.67603 
33 1 3.77746 10.5765 6.67126 
37 1 6.66494 12.4434 5.6528 
38 1 6.66988 11.4364 4.63906 
39 1 6.67167 10.5726 3.77206 
43 1 6.6727 7.6952 0.895203 
44 1 6.67469 8.70259 1.90555 
45 1 6.67082 9.56919 2.76964 
28 1 5.64772 7.69666 13.4713 
29 1 4.63992 8.70562 13.4741 
30 1 3.77425 9.56985 13.4738 
34 1 0.899075 12.4487 13.4699 
35 1 1.90566 11.4397 13.4699 
36 1 2.76988 10.574 13.4693 
52 1 5.65552 13.4929 7.69381 
53 1 4.64648 13.4798 8.70017 
54 1 3.78201 13.4739 9.56563 
58 1 0.902468 13.4726 12.443 
59 1 1.91049 13.4709 11.4353 
60 1 2.77534 13.4711 10.5695 
13 1 7.69691 6.67089 0.895948 
14 1 8.7044 6.67332 1.90508 
15 1 9.56982 6.67337 2.76986 
19 1 12.4468 6.67396 5.64759 
20 1 11.4363 6.66268 4.64238 
21 1 10.5755 6.67593 3.77281 
61 1 12.4473 5.64819 6.67173 
62 1 11.4395 4.64082 6.67145 
63 1 10.5749 3.7746 6.6732 
67 1 7.68847 0.905334 6.64659 
68 1 8.70432 1.90927 6.66037 
69 1 9.57328 2.77101 6.67438 
4 1 13.473 5.64758 7.69804 
5 1 13.4731 4.64103 8.70624 
6 1 13.4708 3.7755 9.57137 
10 1 13.4755 0.89729 12.4471 
11 1 13.4716 1.90318 11.4382 
12 1 13.4718 2.76904 10.5734 
64 1 7.69544 5.64548 13.4694 
65 1 8.70446 4.64177 13.4723 
66 1 9.56962 3.77668 13.4706 
70 1 12.4487 0.899983 13.4701 
71 1 11.4375 1.90552 13.4723 
72 1 10.5716 2.77 13.4709 
73 2 7.03223 0.737732 10.0299 
74 3 6.97438 1.12275 10.863 
16 1 7.69956 13.4555 5.64142 
17 1 8.7061 13.4635 4.63477 
18 1 9.57486 13.4684 3.77265 
22 1 12.4505 13.4738 0.894121 
23 1 11.4424 13.4743 1.90084 
24 1 10.5769 13.4724 2.76656 
40 1 13.4741 7.69827 5.64774 
41 1 13.4732 8.70689 4.64099 
42 1 13.4708 9.57172 3.77512 
46 1 13.4749 12.4463 0.895953 
47 1 13.4746 11.439 1.90407 
48 1 13.4701 10.573 2.76874 
ITEM: TIMESTEP
47
ITEM: NUMBER OF ATOMS
74
ITEM: BOX BOUNDS pp pp pp
0.0000000000000000e+00 1.3600000000000000e+01
0.0000000000000000e+00 1.3600000000000000e+01
0.0000000000000000e+00 1.3600000000000000e+01
ITEM: ATOMS id type x y z 
1 1 6.60587 0.982303 7.60391 
2 1 6.63185 2.08468 8.50945 
3 1 6.65063 2.81035 9.50304 
7 1 6.67003 5.64019 12.4444 
8 1 6.67451 4.63267 11.4381 
9 1 6.66621 3.77661 10.5659 
49 1 5.65035 6.67123 12.4446 
50 1 4.64115 6.66425 11.4425 
51 1 3.77702 6.67539 10.5757 
55 1 0.898441 6.67196 7.69843 
56 1 1.90726 6.67332 8.70603 
57 1 2.77239 6.67255 9.57205 
25 1 0.898182 7.69694 6.67345 
26 1 1.90652 8.70534 6.67358 
27 1 2.77082 9.57148 6.67184 
31 1 5.65218 12.4504 6.68944 
32 1 4.64444 11.4396 6.67603 
33 1 3.77746 10.5765 6.67126 
37 1 6.66494 12.4434 5.6528 
38 1 6.66988 11.4364 4.63906 
39 1 6.67167 10.5726 3.77206 
43 1 6.6727 7.6952 0.895203 
44 1 6.67469 8.70259 1.90555 
45 1 6.67082 9.56919 2.76964 
28 1 5.64772 7.69666 13.4713 
29 1 4.63992 8.70562 13.4741 
30 1 3.77425 9.56985 13.4738 
34 1 0.899075 12.4487 13.4699 
35 1 1.90566 11.4397 13.4699 
36 1 2.76988 10.574 13.4693 
52 1 5.65552 13.4929 7.69381 
53 1 4.64648 13.4798 8.70017 
54 1 3.78201 13.4739 9.56563 
58 1 0.902468 13.4726 12.443 
59 1 1.91049 13.4709 11.4353 
60 1 2.77534 13.4711 10.5695 
13 1 7.69691 6.67089 0.895948 
14 1 8.7044 6.67332 1.90508 
15 1 9.56982 6.67337 2.76986 
19 1 12.4468 6.67396 5.64759 
20 1 11.4363 6.66268 4.64238 
21 1 10.5755 6.67593 3.77281 
61 1 12.4473 5.64819 6.67173 
62 1 11.4395 4.64082 6.67145 
63 1 10.5749 3.7746 6.6732 
67 1 7.68847 0.905334 6.64659 
68 1 8.70432 1.90927 6.66037 
69 1 9.57328 2.77101 6.67438 
4 1 13.473 5.64758 7.69804 
5 1 13.4731 4.64103 8.70624 
6 1 13.4708 3.7755 9.57137 
10 1 13.4755 0.89729 12.4471 
11 1 13.4716 1.90318 11.4382 
12 1 13.4718 2.76904 10.5734 
64 1 7.69544 5.64548 13.4694 
65 1 8.70446 4.64177 13.4723 
66 1 9.56962 3.77668 13.4706 
70 1 12.4487 0.899983 13.4701 
71 1 11.4375 1.90552 13.4723 
72 1 10.5716 2.77 13.4709 
73 2 7.03223 0.737732 10.0299 
74 3 6.97438 1.12275 10.863 
16 1 7.69956 13.4555 5.64142 
17 1 8.7061 13.4635 4.63477 
18 1 9.57486 13.4684 3.77265 
22 1 12.4505 13.4738 0.894121 
23 1 11.4424 13.4743 1.90084 
24 1 10.5769 13.4724 2.76656 
40 1 13.4741 7.69827 5.64774 
41 1 13.4732 8.70689 4.64099 
42 1 13.4708 9.57172 3.77512 
46 1 13.4749 12.4463 0.895953 
47 1 13.4746 11.439 1.90407 
48 1 13.4701 10.573 2.76874 
ITEM: TIMESTEP
50
ITEM: NUMBER OF ATOMS
74
ITEM: BOX BOUNDS pp pp pp
-1.8954176934321337e-03 1.3601895417693431e+01
-2.0400000000000001e-03 1.3602039999999997e+01
-2.0028804410326803e-03 1.3602002880441034e+01
ITEM: ATOMS id type x y z 
1 1 6.60582 0.980559 7.60414 
2 1 6.63181 2.08328 8.50997 
3 1 6.65059 2.80915 9.50383 
7 1 6.67 5.63984 12.4461 
8 1 6.67448 4.63201 11.4394 
9 1 6.66617 3.77571 10.567 
49 1 5.65003 6.67119 12.4463 
50 1 4.64054 6.66421 11.4439 
51 1 3.77617 6.67535 10.5768 
55 1 0.896799 6.67192 7.6987 
56 1 1.90591 6.67328 8.7066 
57 1 2.77127 6.67251 9.57286 
25 1 0.896538 7.69721 6.67341 
26 1 1.90516 8.70592 6.67354 
27 1 2.76969 9.57231 6.6718 
31 1 5.65186 12.4521 6.6894 
32 1 4.64384 11.441 6.676 
33 1 3.77662 10.5776 6.67122 
37 1 6.66491 12.4451 5.65246 
38 1 6.66984 11.4378 4.63842 
39 1 6.67163 10.5738 3.77117 
43 1 6.67266 7.69547 0.893466 
44 1 6.67466 8.70316 1.90412 
45 1 6.67079 9.57002 2.76845 
28 1 5.64739 7.69693 13.4733 
29 1 4.63932 8.70619 13.4761 
30 1 3.77341 9.57068 13.4757 
34 1 0.897431 12.4504 13.4719 
35 1 1.9043 11.4411 13.4719 
36 1 2.76876 10.5751 13.4712 
52 1 5.65519 13.495 7.69408 
53 1 4.64588 13.4818 8.70074 
54 1 3.78117 13.4759 9.56644 
58 1 0.900825 13.4746 12.4446 
59 1 1.90913 13.4729 11.4366 
60 1 2.77422 13.4731 10.5706 
13 1 7.69716 6.67085 0.894213 
14 1 8.70494 6.67328 1.90364 
15 1 9.57059 6.67333 2.76868 
19 1 12.4484 6.67392 5.64725 
20 1 11.4376 6.66264 4.64174 
21 1 10.5765 6.67589 3.77192 
61 1 12.4488 5.64784 6.6717 
62 1 11.4408 4.64017 6.67141 
63 1 10.576 3.77369 6.67317 
67 1 7.68873 0.903571 6.64654 
68 1 8.70486 1.9078 6.66032 
69 1 9.57405 2.7698 6.67434 
4 1 13.4749 5.64724 7.69831 
5 1 13.475 4.64038 8.70681 
6 1 13.4727 3.7746 9.57218 
10 1 13.4773 0.895517 12.4487 
11 1 13.4734 1.90172 11.4396 
12 1 13.4737 2.76782 10.5745 
64 1 7.69569 5.64513 13.4714 
65 1 8.705 4.64112 13.4742 
66 1 9.57039 3.77578 13.4726 
70 1 12.4502 0.898214 13.4721 
71 1 11.4387 1.90406 13.4742 
72 1 10.5727 2.76879 13.4729 
73 2 7.03229 0.735904 10.0308 
74 3 6.97443 1.12105 10.8642 
16 1 7.69981 13.4575 5.64107 
17 1 8.70664 13.4655 4.63413 
18 1 9.57563 13.4704 3.77176 
22 1 12.4521 13.4758 0.892384 
23 1 11.4437 13.4763 1.8994 
24 1 10.578 13.4744 2.76537 
40 1 13.4759 7.69854 5.6474 
41 1 13.4751 8.70746 4.64034 
42 1 13.4726 9.57255 3.77423 
46 1 13.4767 12.448 0.894218 
47 1 13.4765 11.4404 1.90263 
48 1 13.4719 10.5741 2.76755 
ITEM: TIMESTEP
60
ITEM: NUMBER OF ATOMS
74
ITEM: BOX BOUNDS pp pp pp
-2.5136124025191293e-03 1.3602513612402520e+01
-5.3812128174229434e-03 1.3605381212817417e+01
-6.2057615831485023e-03 1.3606205761583148e+01
ITEM: ATOMS id type x y z 
1 1 6.606 0.977484 7.60417 
2 1 6.6317 2.08173 8.51178 
3 1 6.65054 2.80712 9.50526 
7 1 6.67002 5.63938 12.4497 
8 1 6.67446 4.63066 11.442 
9 1 6.66617 3.77448 10.5695 
49 1 5.64991 6.67114 12.4502 
50 1 4.6403 6.66432 11.4461 
51 1 3.77593 6.67518 10.5795 
55 1 0.896176 6.67186 7.69916 
56 1 1.90573 6.67322 8.70804 
57 1 2.77059 6.67247 9.57426 
25 1 0.895884 7.69758 6.67329 
26 1 1.90493 8.70706 6.67346 
27 1 2.76911 9.57346 6.67172 
31 1 5.65182 12.4547 6.68916 
32 1 4.64342 11.443 6.67598 
33 1 3.77653 10.5796 6.67115 
37 1 6.66492 12.4477 5.65165 
38 1 6.66982 11.4399 4.63691 
39 1 6.67161 10.576 3.76968 
43 1 6.6726 7.69588 0.889724 
44 1 6.67461 8.70434 1.90135 
45 1 6.6708 9.57107 2.76563 
28 1 5.64729 7.69734 13.4774 
29 1 4.63915 8.70712 13.4802 
30 1 3.77326 9.57191 13.4799 
34 1 0.896741 12.4534 13.4759 
35 1 1.9039 11.4433 13.476 
36 1 2.76827 10.5771 13.4754 
52 1 5.65469 13.498 7.69461 
53 1 4.64544 13.4852 8.70209 
54 1 3.78104 13.4792 9.56807 
58 1 0.900129 13.4779 12.4482 
59 1 1.90886 13.4762 11.4394 
60 1 2.77361 13.4764 10.5732 
13 1 7.69725 6.67074 0.89052 
14 1 8.7052 6.67321 1.9007 
15 1 9.57069 6.67328 2.76601 
19 1 12.4491 6.67382 5.64661 
20 1 11.4378 6.66272 4.64036 
21 1 10.5771 6.67574 3.77023 
61 1 12.4495 5.64742 6.67162 
62 1 11.4411 4.639 6.67133 
63 1 10.5766 3.77244 6.6731 
67 1 7.6891 0.900719 6.64596 
68 1 8.70513 1.90555 6.66017 
69 1 9.57403 2.76752 6.67426 
4 1 13.4755 5.64674 7.69871 
5 1 13.4756 4.63914 8.70824 
6 1 13.4733 3.77333 9.57362 
10 1 13.478 0.892279 12.4522 
11 1 13.4742 1.89983 11.4425 
12 1 13.4742 2.76545 10.577 
64 1 7.69567 5.64474 13.4756 
65 1 8.70534 4.63986 13.4784 
66 1 9.57053 3.7744 13.4767 
70 1 12.4508 0.895191 13.4762 
71 1 11.4391 1.90177 13.4784 
72 1 10.5732 2.76661 13.477 
73 2 7.03243 0.73241 10.0332 
74 3 6.97441 1.1185 10.8668 
16 1 7.69972 13.4611 5.64046 
17 1 8.70732 13.4685 4.63271 
18 1 9.57556 13.4739 3.76998 
22 1 12.4528 13.479 0.888646 
23 1 11.4438 13.4795 1.89657 
24 1 10.5787 13.4777 2.76262 
40 1 13.4765 7.69887 5.64682 
41 1 13.4758 8.70853 4.63876 
42 1 13.4732 9.57367 3.77265 
46 1 13.4774 12.4511 0.890578 
47 1 13.4769 11.4422 1.89948 
48 1 13.4726 10.5764 2.76496 
ITEM: TIMESTEP
70
ITEM: NUMBER OF ATOMS
74
ITEM: BOX BOUNDS pp pp pp
-6.4495350782165992e-04 1.3600644953507826e+01
-5.7703589489366807e-03 1.3605770358948927e+01
-1.1222661828585468e-02 1.3611222661828577e+01
ITEM: ATOMS id type x y z 
1 1 6.60653 0.976132 7.60331 
2 1 6.63135 2.08246 8.51394 
3 1 6.65047 2.8073 9.50725 
7 1 6.67008 5.63994 12.4546 
8 1 6.67447 4.63029 11.445 
9 1 6.66624 3.77487 10.5726 
49 1 5.65041 6.67089 12.4558 
50 1 4.64162 6.66495 11.448 
51 1 3.77634 6.67478 10.583 
55 1 0.897322 6.67189 7.6993 
56 1 1.90715 6.67321 8.70955 
57 1 2.77121 6.67252 9.57582 
25 1 0.896927 7.69713 6.67313 
26 1 1.90624 8.70712 6.67336 
27 1 2.77001 9.57342 6.6716 
31 1 5.65265 12.455 6.68856 
32 1 4.64401 11.4433 6.67609 
33 1 3.77749 10.5799 6.67108 
37 1 6.66504 12.4479 5.65072 
38 1 6.66979 11.44 4.63534 
39 1 6.67159 10.577 3.76824 
43 1 6.6726 7.69568 0.885055 
44 1 6.67457 8.70461 1.89793 
45 1 6.6709 9.57064 2.76203 
28 1 5.64791 7.69702 13.4822 
29 1 4.63999 8.70702 13.4851 
30 1 3.77436 9.57178 13.4848 
34 1 0.897694 12.4545 13.4808 
35 1 1.90508 11.4438 13.4809 
36 1 2.76918 10.5775 13.4803 
52 1 5.65431 13.4982 7.6948 
53 1 4.64572 13.4859 8.70359 
54 1 3.78209 13.4795 9.57007 
58 1 0.901116 13.4783 12.453 
59 1 1.91029 13.4766 11.4428 
60 1 2.77427 13.4768 10.5765 
13 1 7.69676 6.67067 0.885866 
14 1 8.70473 6.6732 1.8971 
15 1 9.56957 6.67332 2.76263 
19 1 12.4483 6.6737 5.64613 
20 1 11.4363 6.66323 4.63894 
21 1 10.5766 6.67542 3.76835 
61 1 12.4486 5.64799 6.67161 
62 1 11.44 4.63909 6.67123 
63 1 10.5759 3.77262 6.67306 
67 1 7.689 0.900348 6.64468 
68 1 8.70438 1.90526 6.65979 
69 1 9.57293 2.76683 6.67416 
4 1 13.4736 5.64716 7.69884 
5 1 13.4737 4.63878 8.70993 
6 1 13.4715 3.77363 9.57512 
10 1 13.4761 0.890922 12.4565 
11 1 13.4728 1.90057 11.4464 
12 1 13.4721 2.76436 10.5799 
64 1 7.69476 5.64543 13.4806 
65 1 8.70485 4.63962 13.4833 
66 1 9.56975 3.77422 13.4816 
70 1 12.4498 0.894243 13.4812 
71 1 11.4381 1.90129 13.4833 
72 1 10.5725 2.76609 13.4819 
73 2 7.03278 0.730175 10.0371 
74 3 6.97423 1.11902 10.87 
16 1 7.69875 13.4621 5.6399 
17 1 8.70773 13.4677 4.63144 
18 1 9.5742 13.4748 3.76764 
22 1 12.4519 13.4793 0.88374 
23 1 11.4423 13.4799 1.89307 
24 1 10.5781 13.4781 2.75924 
40 1 13.4745 7.69839 5.64648 
41 1 13.474 8.7088 4.63692 
42 1 13.4713 9.57324 3.77101 
46 1 13.4756 12.4522 0.885988 
47 1 13.4747 11.4417 1.89547 
48 1 13.471 10.5776 2.76169 
ITEM: TIMESTEP
80
ITEM: NUMBER OF ATOMS
74
ITEM: BOX BOUNDS pp pp pp
-1.1267571746460081e-03 1.3601126757174651e+01
-6.4818128103253754e-03 1.3606481812810314e+01
-1.5734219485001234e-02 1.3615734219484988e+01
ITEM: ATOMS id type x y z 
1 1 6.60688 0.973696 7.60201 
2 1 6.63024 2.08209 8.51585 
3 1 6.65023 2.8074 9.50855 
7 1 6.67002 5.64094 12.4596 
8 1 6.67439 4.63021 11.4478 
9 1 6.66629 3.7754 10.5754 
49 1 5.65063 6.67012 12.4614 
50 1 4.64273 6.66628 11.4492 
51 1 3.77554 6.67396 10.5865 
55 1 0.896141 6.67196 7.69902 
56 1 1.90661 6.67322 8.71066 
57 1 2.77021 6.6726 9.57698 
25 1 0.895488 7.69631 6.67295 
26 1 1.90571 8.70713 6.67327 
27 1 2.76938 9.57337 6.67147 
31 1 5.65351 12.4558 6.68796 
32 1 4.64398 11.4441 6.67644 
33 1 3.77763 10.5805 6.67111 
37 1 6.66515 12.4483 5.65004 
38 1 6.66963 11.4405 4.63423 
39 1 6.67147 10.5781 3.76703 
43 1 6.67265 7.69537 0.880847 
44 1 6.67445 8.70477 1.89453 
45 1 6.67101 9.57028 2.75869 
28 1 5.64867 7.69627 13.4866 
29 1 4.64012 8.70694 13.4894 
30 1 3.77462 9.5716 13.4891 
34 1 0.896133 12.4562 13.4851 
35 1 1.90449 11.4445 13.4853 
36 1 2.76843 10.5784 13.4848 
52 1 5.65378 13.4997 7.69386 
53 1 4.64517 13.4873 8.70484 
54 1 3.78234 13.48 9.57183 
58 1 0.899683 13.4791 12.4576 
59 1 1.90994 13.4773 11.4459 
60 1 2.77348 13.4775 10.5796 
13 1 7.69622 6.67075 0.881455 
14 1 8.70493 6.67318 1.8938 
15 1 9.5693 6.6734 2.75936 
19 1 12.4499 6.67359 5.64588 
20 1 11.4364 6.66418 4.63775 
21 1 10.5775 6.67481 3.7669 
61 1 12.4504 5.64904 6.67174 
62 1 11.4408 4.63932 6.67114 
63 1 10.577 3.77292 6.67309 
67 1 7.68788 0.899617 6.64306 
68 1 8.70418 1.90494 6.65911 
69 1 9.57294 2.76596 6.67405 
4 1 13.4741 5.64782 7.69878 
5 1 13.4741 4.63843 8.71124 
6 1 13.472 3.77378 9.57638 
10 1 13.4767 0.889492 12.4609 
11 1 13.4733 1.90015 11.4493 
12 1 13.4726 2.76351 10.583 
64 1 7.69363 5.64664 13.4852 
65 1 8.705 4.63925 13.4877 
66 1 9.56979 3.77396 13.4861 
70 1 12.4513 0.892515 13.4856 
71 1 11.4389 1.90036 13.4876 
72 1 10.5735 2.76507 13.4863 
73 2 7.03378 0.725126 10.0429 
74 3 6.97392 1.12052 10.8729 
16 1 7.69828 13.4626 5.63953 
17 1 8.70801 13.4681 4.62974 
18 1 9.57416 13.4754 3.76589 
22 1 12.4533 13.4798 0.878983 
23 1 11.4427 13.4806 1.88979 
24 1 10.579 13.4788 2.75605 
40 1 13.4748 7.69767 5.64648 
41 1 13.4745 8.70902 4.63547 
42 1 13.4718 9.57286 3.76956 
46 1 13.476 12.4536 0.881317 
47 1 13.4752 11.4423 1.89221 
48 1 13.4715 10.5787 2.75841 
ITEM: TIMESTEP
90
ITEM: NUMBER OF ATOMS
74
ITEM: BOX BOUNDS pp pp pp
-2.1620755546700476e-03 1.3602162075554679e+01
-6.3511859868558762e-03 1.3606351185986846e+01
-1.8430249616285591e-02 1.3618430249616269e+01
ITEM: ATOMS id type x y z 
1 1 6.60716 0.972031 7.60064 
2 1 6.62847 2.08121 8.51738 
3 1 6.64984 2.80786 9.50845 
7 1 6.66998 5.6421 12.4633 
8 1 6.67428 4.63064 11.4494 
9 1 6.66635 3.77663 10.577 
49 1 5.65092 6.6697 12.4649 
50 1 4.64267 6.66727 11.4502 
51 1 3.7751 6.67333 10.5885 
55 1 0.894641 6.67218 7.6985 
56 1 1.90561 6.67328 8.71121 
57 1 2.76878 6.67273 9.5774 
25 1 0.893611 7.69545 6.67278 
26 1 1.90485 8.70694 6.67321 
27 1 2.76835 9.57287 6.67135 
31 1 5.6543 12.4562 6.68757 
32 1 4.64374 11.4444 6.67706 
33 1 3.77781 10.5808 6.67128 
37 1 6.66531 12.448 5.64989 
38 1 6.66936 11.4402 4.63367 
39 1 6.67127 10.5785 3.76636 
43 1 6.67258 7.69505 0.878271 
44 1 6.67426 8.70478 1.89243 
45 1 6.67116 9.56972 2.75658 
28 1 5.64949 7.69523 13.4893 
29 1 4.64006 8.7066 13.492 
30 1 3.77477 9.57098 13.4916 
34 1 0.894124 12.4573 13.4877 
35 1 1.90351 11.4447 13.488 
36 1 2.76724 10.5789 13.4876 
52 1 5.65285 13.501 7.69177 
53 1 4.64433 13.4884 8.70542 
54 1 3.78252 13.4797 9.57289 
58 1 0.897918 13.479 12.4606 
59 1 1.90918 13.4772 11.4478 
60 1 2.77242 13.4773 10.5818 
13 1 7.69577 6.67087 0.878672 
14 1 8.70538 6.67317 1.89183 
15 1 9.56939 6.67352 2.75721 
19 1 12.4517 6.67351 5.64585 
20 1 11.4372 6.66534 4.63688 
21 1 10.5785 6.67408 3.76639 
61 1 12.4527 5.65035 6.67193 
62 1 11.442 4.63993 6.6711 
63 1 10.5785 3.77375 6.67323 
67 1 7.68602 0.899737 6.64083 
68 1 8.70409 1.90552 6.65814 
69 1 9.57327 2.76556 6.67393 
4 1 13.4753 5.64849 7.69872 
5 1 13.4751 4.63834 8.71202 
6 1 13.4731 3.77416 9.57698 
10 1 13.4777 0.889026 12.4636 
11 1 13.4744 1.90033 11.4511 
12 1 13.4736 2.76332 10.5849 
64 1 7.69269 5.64804 13.4883 
65 1 8.70529 4.6391 13.4903 
66 1 9.5699 3.77416 13.4887 
70 1 12.4533 0.891412 13.4881 
71 1 11.4402 1.89998 13.4902 
72 1 10.575 2.76437 13.489 
73 2 7.03537 0.718252 10.0498 
74 3 6.97342 1.12413 10.8749 
16 1 7.69811 13.4622 5.63912 
17 1 8.70845 13.4676 4.62858 
18 1 9.57436 13.475 3.76494 
22 1 12.455 13.4796 0.875979 
23 1 11.4435 13.4805 1.88778 
24 1 10.5802 13.4787 2.75396 
40 1 13.4757 7.69702 5.64668 
41 1 13.4755 8.709 4.63459 
42 1 13.4728 9.57224 3.76876 
46 1 13.477 12.4541 0.878286 
47 1 13.4762 11.4422 1.89028 
48 1 13.4726 10.5792 2.75636 
ITEM: TIMESTEP
100
ITEM: NUMBER OF ATOMS
74
ITEM: BOX BOUNDS pp pp pp
-2.7136686598671824e-03 1.3602713668659877e+01
-6.9097231086437949e-03 1.3606909723108631e+01
-1.8864068828925915e-02 1.3618864068828907e+01
ITEM: ATOMS id type x y z 
1 1 6.60723 0.971466 7.60048 
2 1 6.6278 2.08003 8.51779 
3 1 6.64964 2.80758 9.50819 
7 1 6.66998 5.6421 12.4639 
8 1 6.67426 4.63068 11.4497 
9 1 6.66635 3.77679 10.5771 
49 1 5.65088 6.66982 12.4652 
50 1 4.64204 6.66711 11.4509 
51 1 3.77508 6.67337 10.5885 
55 1 0.894209 6.67226 7.69849 
56 1 1.90516 6.67331 8.71129 
57 1 2.76834 6.67275 9.57752 
25 1 0.893068 7.69552 6.67271 
26 1 1.90444 8.70708 6.67319 
27 1 2.76801 9.57307 6.67132 
31 1 5.65434 12.4567 6.68753 
32 1 4.64356 11.4449 6.6773 
33 1 3.77769 10.5811 6.67139 
37 1 6.66539 12.4483 5.64986 
38 1 6.66925 11.4404 4.63357 
39 1 6.67118 10.5787 3.76612 
43 1 6.67253 7.69519 0.877954 
44 1 6.67419 8.70503 1.89212 
45 1 6.67122 9.56999 2.75636 
28 1 5.64954 7.69514 13.4898 
29 1 4.63994 8.70669 13.4924 
30 1 3.77461 9.57114 13.492 
34 1 0.893544 12.4578 13.4881 
35 1 1.90307 11.4451 13.4884 
36 1 2.76686 10.5792 13.4881 