ITEM: TIMESTEP
0
ITEM: NUMBER OF ATOMS
145
ITEM: BOX BOUNDS pp pp pp
0.0000000000000000e+00 2.1884000000000000e+01
0.0000000000000000e+00 2.1885999999999999e+01
0.0000000000000000e+00 2.1885000000000002e+01
ITEM: ATOMS id type x y z 
9 1 8.524 12.547 12.547 
10 1 1.604 19.466 19.466 
11 1 1.605 19.466 12.547 
12 1 8.524 12.547 19.466 
13 1 1.605 12.547 19.466 
14 1 8.524 19.467 12.547 
15 1 8.524 19.467 19.466 
16 1 1.605 12.547 12.547 
25 1 10.105 10.965 10.965 
26 1 0.023 21.047 21.049 
27 1 0.023 21.047 10.964 
28 1 10.106 10.965 21.047 
29 1 0.023 10.966 21.048 
30 1 10.106 21.049 10.966 
31 1 10.106 21.048 21.049 
32 1 0.024 10.965 10.965 
57 1 5.811 12.218 12.218 
58 1 4.317 19.796 19.795 
59 1 4.318 19.795 12.218 
60 1 5.811 12.219 19.795 
61 1 4.318 12.218 19.795 
62 1 5.811 19.795 12.218 
63 1 5.811 19.796 19.795 
64 1 4.318 12.218 12.218 
65 1 8.853 15.26 12.218 
66 1 1.276 16.754 19.795 
67 1 8.853 16.754 19.795 
68 1 1.276 15.26 12.218 
69 1 1.276 16.754 12.218 
70 1 8.853 15.26 19.796 
71 1 1.276 15.26 19.795 
72 1 8.853 16.753 12.218 
73 1 8.853 12.219 15.26 
74 1 1.276 19.795 16.753 
75 1 1.276 12.218 16.754 
76 1 8.853 19.796 15.26 
77 1 8.853 19.796 16.753 
78 1 1.276 12.218 15.26 
79 1 1.276 19.795 15.26 
80 1 8.853 12.219 16.754 
105 1 7.01 12.317 12.317 
106 1 3.118 19.696 19.696 
107 1 3.119 19.696 12.317 
108 1 7.011 12.317 19.696 
109 1 3.119 12.317 19.696 
110 1 7.01 19.696 12.317 
111 1 7.01 19.697 19.696 
112 1 3.118 12.317 12.317 
113 1 8.754 14.061 12.317 
114 1 1.375 17.953 19.696 
115 1 8.754 17.953 19.696 
116 1 1.375 14.061 12.317 
117 1 1.375 17.953 12.317 
118 1 8.754 14.061 19.696 
119 1 1.375 14.061 19.696 
120 1 8.754 17.953 12.317 
121 1 8.754 12.317 14.061 
122 1 1.375 19.696 17.952 
123 1 1.375 12.317 17.953 
124 1 8.754 19.697 14.061 
125 1 8.754 19.697 17.952 
126 1 1.375 12.317 14.061 
127 1 1.375 19.696 14.061 
128 1 8.754 12.318 17.953 
137 1 9.407 11.664 11.664 
138 1 0.721 20.349 20.35 
139 1 0.721 20.349 11.663 
140 1 9.408 11.664 20.349 
141 1 0.721 11.664 20.35 
142 1 9.407 20.35 11.664 
143 1 9.407 20.35 20.35 
144 1 0.722 11.664 11.663 
1 1 19.466 1.604 1.604 
2 1 12.547 8.524 8.524 
3 1 12.546 8.524 1.604 
4 1 19.466 1.605 8.524 
5 1 12.547 1.604 8.524 
6 1 19.466 8.524 1.605 
7 1 19.466 8.524 8.524 
8 1 12.547 1.604 1.605 
17 1 21.048 0.023 0.022 
18 1 10.965 10.106 10.106 
19 1 10.965 10.106 0.024 
20 1 21.048 0.024 10.107 
21 1 10.965 0.022 10.105 
22 1 21.048 10.105 0.023 
23 1 21.047 10.106 10.106 
24 1 10.965 0.023 0.022 
33 1 16.753 1.275 1.276 
34 1 15.26 8.853 8.853 
35 1 15.26 8.852 1.276 
36 1 16.753 1.275 8.853 
37 1 15.26 1.275 8.853 
38 1 16.753 8.852 1.276 
39 1 16.753 8.853 8.853 
40 1 15.26 1.275 1.276 
41 1 19.795 4.317 1.276 
42 1 12.218 5.811 8.853 
43 1 19.795 5.811 8.853 
44 1 12.218 4.317 1.276 
45 1 12.218 5.811 1.275 
46 1 19.795 4.317 8.853 
47 1 12.218 4.317 8.853 
48 1 19.795 5.811 1.276 
49 1 19.795 1.275 4.317 
50 1 12.218 8.852 5.811 
51 1 12.218 1.276 5.811 
52 1 19.795 8.853 4.318 
53 1 19.795 8.853 5.811 
54 1 12.218 1.275 4.318 
55 1 12.218 8.852 4.317 
56 1 19.795 1.275 5.811 
81 1 17.952 1.374 1.375 
82 1 14.061 8.754 8.754 
83 1 14.06 8.753 1.375 
84 1 17.952 1.374 8.754 
85 1 14.06 1.374 8.754 
86 1 17.952 8.754 1.375 
87 1 17.952 8.754 8.754 
88 1 14.061 1.374 1.375 
89 1 19.696 3.118 1.375 
90 1 12.317 7.01 8.754 
91 1 19.696 7.01 8.754 
92 1 12.317 3.118 1.375 
93 1 12.317 7.01 1.374 
94 1 19.695 3.118 8.754 
95 1 12.317 3.118 8.754 
96 1 19.696 7.01 1.375 
97 1 19.696 1.374 3.118 
98 1 12.317 8.754 7.01 
99 1 12.317 1.375 7.01 
100 1 19.696 8.754 3.118 
101 1 19.696 8.754 7.01 
102 1 12.317 1.374 3.119 
103 1 12.317 8.753 3.118 
104 1 19.696 1.374 7.01 
129 1 20.35 0.722 0.721 
130 1 11.664 9.407 9.407 
131 1 11.663 9.407 0.722 
132 1 20.35 0.722 9.408 
133 1 11.663 0.72 9.407 
134 1 20.35 9.407 0.721 
135 1 20.349 9.407 9.407 
136 1 11.664 0.721 0.721 
145 2 17.952 8.754 10.104 
ITEM: TIMESTEP
10
ITEM: NUMBER OF ATOMS
145
ITEM: BOX BOUNDS pp pp pp
0.0000000000000000e+00 2.1884000000000000e+01
0.0000000000000000e+00 2.1885999999999999e+01
0.0000000000000000e+00 2.1885000000000002e+01
ITEM: ATOMS id type x y z 
9 1 8.51722 12.5538 12.5532 
10 1 1.61035 19.4596 19.4598 
11 1 1.61127 19.4598 12.5534 
12 1 8.51789 12.5537 19.4598 
13 1 1.61141 12.5535 19.4599 
14 1 8.51764 19.4595 12.5533 
15 1 8.5177 19.4606 19.4595 
16 1 1.61166 12.5537 12.5534 
25 1 10.1051 10.9653 10.9651 
26 1 0.0227309 21.0473 21.049 
27 1 0.0225984 21.0473 10.9639 
28 1 10.1064 10.9649 21.0474 
29 1 0.0226015 10.9656 21.0483 
30 1 10.1053 21.0483 10.9663 
31 1 10.1057 21.048 21.0486 
32 1 0.0219332 10.9635 10.963 
57 1 5.81909 12.2192 12.2192 
58 1 4.31042 19.7948 19.794 
59 1 4.31037 19.7939 12.2191 
60 1 5.81854 12.2199 19.7938 
61 1 4.31059 12.2192 19.7939 
62 1 5.81731 19.794 12.219 
63 1 5.81752 19.795 19.7939 
64 1 4.30952 12.2192 12.2192 
65 1 8.85184 15.2523 12.2192 
66 1 1.27718 16.7614 19.7939 
67 1 8.85185 16.761 19.794 
68 1 1.27715 15.2526 12.2192 
69 1 1.27707 16.7604 12.2191 
70 1 8.85194 15.2526 19.7947 
71 1 1.2771 15.253 19.7939 
72 1 8.85134 16.7665 12.2197 
73 1 8.85191 12.2199 15.2536 
74 1 1.27706 19.794 16.7599 
75 1 1.27708 12.2191 16.7606 
76 1 8.85201 19.7951 15.2539 
77 1 8.85186 19.7948 16.7613 
78 1 1.27716 12.2192 15.2525 
79 1 1.27706 19.7939 15.2527 
80 1 8.85197 12.2201 16.7607 
105 1 7.00555 12.316 12.316 
106 1 3.12156 19.6971 19.6969 
107 1 3.12261 19.6969 12.316 
108 1 7.00666 12.3161 19.6971 
109 1 3.1226 12.316 19.6969 
110 1 7.00789 19.697 12.3163 
111 1 7.00685 19.6979 19.6969 
112 1 3.12265 12.316 12.3159 
113 1 8.755 14.0654 12.316 
114 1 1.37389 17.9484 19.697 
115 1 8.75494 17.9492 19.6969 
116 1 1.374 14.0647 12.3161 
117 1 1.37406 17.9493 12.3161 
118 1 8.75504 14.0653 19.6971 
119 1 1.37401 14.0649 19.6969 
120 1 8.75545 17.943 12.3155 
121 1 8.75494 12.3162 14.0641 
122 1 1.37396 19.6969 17.9488 
123 1 1.37405 12.3161 17.9492 
124 1 8.75468 19.698 14.0629 
125 1 8.75497 19.698 17.948 
126 1 1.37399 12.3161 14.0647 
127 1 1.37404 19.6969 14.0643 
128 1 8.75501 12.317 17.9493 
137 1 9.41161 11.6591 11.6592 
138 1 0.715853 20.3544 20.3553 
139 1 0.716315 20.3543 11.658 
140 1 9.41281 11.6587 20.3542 
141 1 0.716466 11.6591 20.3549 
142 1 9.41293 20.3562 11.6584 
143 1 9.41253 20.3553 20.3555 
144 1 0.715155 11.6569 11.6567 
1 1 19.4598 1.61064 1.61057 
2 1 12.5527 8.51671 8.51668 
3 1 12.5527 8.51736 1.61028 
4 1 19.4591 1.61154 8.51738 
5 1 12.5535 1.61001 8.5174 
6 1 19.4595 8.51739 1.61206 
7 1 19.5174 8.50945 8.48761 
8 1 12.5535 1.61016 1.61157 
17 1 21.048 0.023282 0.0224777 
18 1 10.9647 10.1058 10.1059 
19 1 10.9643 10.1063 0.0233834 
20 1 21.048 0.024011 10.1067 
21 1 10.9642 0.0213525 10.1058 
22 1 21.0486 10.1056 0.0224907 
23 1 21.0395 10.0986 10.0989 
24 1 10.9652 0.0228663 0.0222905 
33 1 16.76 1.27602 1.27707 
34 1 15.2744 8.84672 8.84227 
35 1 15.2515 8.85077 1.27722 
36 1 16.7625 1.27629 8.85167 
37 1 15.2513 1.27625 8.85178 
38 1 16.7606 8.85096 1.27716 
39 1 16.683 8.85822 8.90205 
40 1 15.2526 1.27608 1.27706 
41 1 19.7939 4.30947 1.2772 
42 1 12.2189 5.81974 8.85158 
43 1 19.7901 5.83132 8.85155 
44 1 12.2191 4.31048 1.27699 
45 1 12.2191 5.8177 1.27614 
46 1 19.7937 4.31553 8.85134 
47 1 12.2191 4.30969 8.85205 
48 1 19.7938 5.81829 1.27712 
49 1 19.7939 1.27612 4.3099 
50 1 12.219 8.85069 5.81992 
51 1 12.2191 1.27709 5.8185 
52 1 19.7935 8.85108 4.31356 
53 1 19.7912 8.85228 5.81987 
54 1 12.2191 1.27621 4.30997 
55 1 12.2191 8.85098 4.30933 
56 1 19.7938 1.2762 5.81924 
81 1 17.9489 1.37311 1.37401 
82 1 14.0543 8.75782 8.75234 
83 1 14.0652 8.75421 1.37381 
84 1 17.9469 1.37309 8.755 
85 1 14.0656 1.37285 8.75515 
86 1 17.9489 8.75464 1.37401 
87 1 18.0296 8.7513 8.75472 
88 1 14.0642 1.37311 1.37409 
89 1 19.697 3.12249 1.37393 
90 1 12.3144 7.00522 8.75427 
91 1 19.6977 7.01133 8.75052 
92 1 12.3161 3.12127 1.37412 
93 1 12.3159 7.00645 1.37307 
94 1 19.6965 3.12597 8.75505 
95 1 12.316 3.12118 8.75494 
96 1 19.6968 7.00666 1.37404 
97 1 19.697 1.37301 3.12206 
98 1 12.3143 8.75414 7.00523 
99 1 12.316 1.37404 7.00632 
100 1 19.6975 8.75541 3.12849 
101 1 19.6962 8.75047 7.02154 
102 1 12.3161 1.373 3.12299 
103 1 12.3159 8.75399 3.12165 
104 1 19.697 1.37315 7.00584 
129 1 20.3552 0.71596 0.71516 
130 1 11.6564 9.41306 9.41302 
131 1 11.6584 9.4121 0.716905 
132 1 20.3547 0.716709 9.41306 
133 1 11.6588 0.715519 9.41167 
134 1 20.354 9.4114 0.716614 
135 1 20.3555 9.40235 9.39756 
136 1 11.6584 0.715771 0.715551 
145 2 17.9025 8.75919 10.1001 
ITEM: TIMESTEP
20
ITEM: NUMBER OF ATOMS
145
ITEM: BOX BOUNDS pp pp pp
0.0000000000000000e+00 2.1884000000000000e+01
0.0000000000000000e+00 2.1885999999999999e+01
0.0000000000000000e+00 2.1885000000000002e+01
ITEM: ATOMS id type x y z 
9 1 8.51404 12.5567 12.5569 
10 1 1.61396 19.4566 19.4565 
11 1 1.61457 19.4566 12.5566 
12 1 8.51462 12.557 19.4567 
13 1 1.61465 12.5569 19.4567 
14 1 8.51515 19.4565 12.5559 
15 1 8.51422 19.4572 19.4565 
16 1 1.61464 12.5568 12.5567 
25 1 10.1054 10.965 10.965 
26 1 0.0219065 21.0484 21.05 
27 1 0.0218424 21.0485 10.9632 
28 1 10.1071 10.9643 21.0483 
29 1 0.0219285 10.9648 21.0492 
30 1 10.1068 21.05 10.9647 
31 1 10.1066 21.049 21.0496 
32 1 0.0191897 10.961 10.9608 
57 1 5.81686 12.2198 12.2198 
58 1 4.31133 19.794 19.7933 
59 1 4.31204 19.7933 12.2197 
60 1 5.81736 12.2204 19.7931 
61 1 4.31182 12.2199 19.7932 
62 1 5.81462 19.7934 12.2195 
63 1 5.81687 19.7942 19.7932 
64 1 4.31105 12.2199 12.2199 
65 1 8.85127 15.2537 12.2198 
66 1 1.2778 16.7597 19.7933 
67 1 8.85116 16.7599 19.7933 
68 1 1.27786 15.2537 12.2199 
69 1 1.2778 16.7594 12.2198 
70 1 8.85133 15.2542 19.7939 
71 1 1.27777 15.254 19.7932 
72 1 8.85108 16.7613 12.2199 
73 1 8.85119 12.2206 15.2544 
74 1 1.27776 19.7933 16.7592 
75 1 1.2778 12.2198 16.7593 
76 1 8.85141 19.7944 15.2563 
77 1 8.85125 19.7942 16.7592 
78 1 1.27787 12.2199 15.2537 
79 1 1.27774 19.7932 15.2537 
80 1 8.8513 12.2208 16.7595 
105 1 7.00507 12.3165 12.3166 
106 1 3.12277 19.6967 19.6964 
107 1 3.12305 19.6964 12.3166 
108 1 7.00588 12.3167 19.6966 
109 1 3.12322 12.3166 19.6964 
110 1 7.00702 19.6968 12.3163 
111 1 7.00553 19.6974 19.6964 
112 1 3.12257 12.3166 12.3165 
113 1 8.75447 14.0655 12.3165 
114 1 1.3744 17.948 19.6965 
115 1 8.75439 17.9485 19.6964 
116 1 1.37459 14.065 12.3166 
117 1 1.37454 17.9478 12.3166 
118 1 8.7545 14.0659 19.6967 
119 1 1.37455 14.0656 19.6964 
120 1 8.75467 17.9463 12.3163 
121 1 8.75446 12.3168 14.0654 
122 1 1.37441 19.6964 17.9477 
123 1 1.37456 12.3166 17.9479 
124 1 8.75467 19.6977 14.0642 
125 1 8.7544 19.6974 17.9479 
126 1 1.37458 12.3167 14.065 
127 1 1.37454 19.6964 14.0652 
128 1 8.75451 12.3175 17.9482 
137 1 9.4097 11.6608 11.6608 
138 1 0.717014 20.353 20.3538 
139 1 0.717136 20.3531 11.6588 
140 1 9.4119 11.6595 20.3531 
141 1 0.717143 11.6598 20.3539 
142 1 9.41085 20.3541 11.6605 
143 1 9.41127 20.3539 20.3539 
144 1 0.714094 11.6561 11.6557 
1 1 19.4564 1.61392 1.61389 
2 1 12.5562 8.51342 8.51319 
3 1 12.556 8.51408 1.61311 
4 1 19.456 1.6161 8.51416 
5 1 12.5566 1.61286 8.51419 
6 1 19.4563 8.5142 1.61802 
7 1 19.5319 8.50666 8.47424 
8 1 12.5567 1.61376 1.6146 
17 1 21.049 0.0222472 0.0213723 
18 1 10.9621 10.1079 10.1079 
19 1 10.9637 10.1071 0.0226561 
20 1 21.0486 0.0230386 10.1072 
21 1 10.9636 0.0205835 10.1065 
22 1 21.0487 10.1059 0.022077 
23 1 21.0407 10.1 10.1004 
24 1 10.9644 0.0218792 0.0213177 
33 1 16.7592 1.27673 1.2778 
34 1 15.2702 8.83857 8.83373 
35 1 15.2538 8.85021 1.27788 
36 1 16.7606 1.27688 8.851 
37 1 15.2537 1.27684 8.85123 
38 1 16.7599 8.8502 1.27785 
39 1 16.6883 8.85992 8.9381 
40 1 15.2538 1.27676 1.27775 
41 1 19.7932 4.31145 1.27788 
42 1 12.219 5.81768 8.85058 
43 1 19.7876 5.81884 8.85281 
44 1 12.2198 4.31115 1.27767 
45 1 12.2197 5.8163 1.27687 
46 1 19.7928 4.31895 8.85056 
47 1 12.2198 4.31058 8.85152 
48 1 19.793 5.81763 1.2778 
49 1 19.7932 1.27682 4.31132 
50 1 12.2191 8.84974 5.81822 
51 1 12.2197 1.27772 5.81706 
52 1 19.7927 8.85029 4.31727 
53 1 19.7884 8.85254 5.8139 
54 1 12.2197 1.27688 4.31157 
55 1 12.2198 8.85045 4.31039 
56 1 19.793 1.27688 5.81799 
81 1 17.9478 1.37365 1.37446 
82 1 14.052 8.76093 8.74664 
83 1 14.0655 8.75369 1.37426 
84 1 17.9478 1.37389 8.7542 
85 1 14.0657 1.37338 8.75458 
86 1 17.9487 8.7538 1.37464 
87 1 18.047 8.75338 8.75385 
88 1 14.0652 1.37361 1.3746 
89 1 19.6964 3.12308 1.37443 
90 1 12.313 7.0045 8.75304 
91 1 19.7034 7.01849 8.74638 
92 1 12.3166 3.12252 1.37466 
93 1 12.3163 7.00543 1.37352 
94 1 19.6961 3.12715 8.75414 
95 1 12.3165 3.12202 8.75455 
96 1 19.696 7.00638 1.3747 
97 1 19.6965 1.37353 3.12309 
98 1 12.3129 8.75273 7.00472 
99 1 12.3165 1.37448 7.00562 
100 1 19.6968 8.75434 3.12887 
101 1 19.7018 8.74891 7.01568 
102 1 12.3166 1.37352 3.12329 
103 1 12.3163 8.75361 3.1224 
104 1 19.6962 1.37386 7.00584 
129 1 20.3537 0.717239 0.716897 
130 1 11.6555 9.41114 9.41114 
131 1 11.6592 9.41105 0.717611 
132 1 20.3534 0.718337 9.41173 
133 1 11.6598 0.716865 9.41049 
134 1 20.3532 9.41059 0.717541 
135 1 20.3646 9.39855 9.38914 
136 1 11.6597 0.717031 0.717086 
145 2 17.8641 8.76345 10.1044 
ITEM: TIMESTEP
30
ITEM: NUMBER OF ATOMS
145
ITEM: BOX BOUNDS pp pp pp
0.0000000000000000e+00 2.1884000000000000e+01
0.0000000000000000e+00 2.1885999999999999e+01
0.0000000000000000e+00 2.1885000000000002e+01
ITEM: ATOMS id type x y z 
9 1 8.51019 12.5601 12.5603 
10 1 1.61723 19.4533 19.4531 
11 1 1.61775 19.453 12.5597 
12 1 8.51131 12.5602 19.4533 
13 1 1.61778 12.5602 19.4531 
14 1 8.51084 19.4539 12.5603 
15 1 8.511 19.4539 19.453 
16 1 1.61667 12.559 12.5588 
25 1 10.1037 10.9667 10.9665 
26 1 0.0223904 21.0477 21.049 
27 1 0.0222152 21.048 10.9639 
28 1 10.1065 10.9648 21.0477 
29 1 0.0224358 10.9652 21.0486 
30 1 10.1056 21.0492 10.9657 
31 1 10.106 21.0485 21.0487 
32 1 0.0182651 10.9611 10.9608 
57 1 5.81577 12.2206 12.2206 
58 1 4.31181 19.7932 19.7925 
59 1 4.31188 19.7925 12.2205 
60 1 5.81681 12.2211 19.7923 
61 1 4.31218 12.2207 19.7924 
62 1 5.81727 19.7924 12.2205 
63 1 5.81638 19.7934 19.7924 
64 1 4.31116 12.2207 12.2207 
65 1 8.85058 15.255 12.2204 
66 1 1.27855 16.759 19.7925 
67 1 8.85038 16.7594 19.7926 
68 1 1.27877 15.2538 12.2208 
69 1 1.27861 16.7584 12.2206 
70 1 8.85055 15.2548 19.793 
71 1 1.27856 15.2545 19.7924 
72 1 8.85042 16.7595 12.2206 
73 1 8.85043 12.2213 15.2546 
74 1 1.27852 19.7925 16.7587 
75 1 1.27866 12.2206 16.7585 
76 1 8.85047 19.7935 15.2538 
77 1 8.85049 19.7935 16.7592 
78 1 1.27878 12.2208 15.2537 
79 1 1.27851 19.7925 15.2542 
80 1 8.85052 12.2216 16.7591 
105 1 7.00467 12.3177 12.3178 
106 1 3.12282 19.6955 19.6952 
107 1 3.12251 19.6952 12.3178 
108 1 7.00593 12.318 19.6954 
109 1 3.12312 12.3178 19.6952 
110 1 7.00578 19.6958 12.3172 
111 1 7.00558 19.6962 19.6952 
112 1 3.12186 12.3178 12.3178 
113 1 8.75325 14.065 12.3178 
114 1 1.3756 17.9481 19.6953 
115 1 8.75312 17.9486 19.6952 
116 1 1.37583 14.0644 12.3179 
117 1 1.37576 17.9477 12.3178 
118 1 8.75328 14.0658 19.6956 
119 1 1.37582 14.0653 19.6952 
120 1 8.7535 17.9478 12.3175 
121 1 8.75328 12.318 14.0657 
122 1 1.37558 19.6953 17.9478 
123 1 1.37575 12.3178 17.9476 
124 1 8.75381 19.6966 14.0653 
125 1 8.75313 19.6961 17.9485 
126 1 1.37581 12.3179 14.0645 
127 1 1.37576 19.6952 14.0649 
128 1 8.75331 12.3187 17.9483 
137 1 9.40921 11.6615 11.662 
138 1 0.717563 20.3531 20.354 
139 1 0.717341 20.3535 11.6588 
140 1 9.41151 11.6601 20.3531 
141 1 0.717619 11.6599 20.3539 
142 1 9.41117 20.3538 11.6601 
143 1 9.41083 20.3538 20.3539 
144 1 0.713361 11.6553 11.6555 
1 1 19.4531 1.61728 1.61762 
2 1 12.5552 8.50985 8.50877 
3 1 12.5595 8.51037 1.61601 
4 1 19.4534 1.62275 8.5115 
5 1 12.5598 1.616 8.51096 
6 1 19.4535 8.51129 1.62482 
7 1 19.5371 8.50408 8.46433 
8 1 12.5599 1.61713 1.6179 
17 1 21.0484 0.0227048 0.0223504 
18 1 10.9615 10.1077 10.1076 
19 1 10.9643 10.1062 0.0233347 
20 1 21.0475 0.0234577 10.1059 
21 1 10.9645 0.0218618 10.1057 
22 1 21.0475 10.105 0.0225806 
23 1 21.0416 10.0999 10.1003 
24 1 10.9651 0.0223843 0.0221482 
33 1 16.759 1.27755 1.27861 
34 1 15.2724 8.82883 8.8241 
35 1 15.2548 8.84947 1.27877 
36 1 16.7589 1.27748 8.85008 
37 1 15.2548 1.27769 8.85048 
38 1 16.7599 8.84914 1.27848 
39 1 16.702 8.85934 8.98139 
40 1 15.2543 1.27754 1.27857 
41 1 19.7924 4.31223 1.27876 
42 1 12.2186 5.81695 8.84906 
43 1 19.7851 5.81633 8.85289 
44 1 12.2206 4.31151 1.27843 
45 1 12.2205 5.81604 1.27777 
46 1 19.7909 4.31842 8.84992 
47 1 12.2206 4.31038 8.85093 
48 1 19.7919 5.81764 1.27844 
49 1 19.7923 1.27769 4.31222 
50 1 12.2187 8.84824 5.81747 
51 1 12.2204 1.2785 5.81652 
52 1 19.7914 8.84999 4.31605 
53 1 19.7867 8.85302 5.80674 
54 1 12.2205 1.27769 4.31212 
55 1 12.2206 8.84987 4.31062 
56 1 19.792 1.27755 5.8169 
81 1 17.948 1.37491 1.37567 
82 1 14.0571 8.76368 8.73806 
83 1 14.0658 8.75254 1.37535 
84 1 17.9492 1.37517 8.75309 
85 1 14.0659 1.37451 8.75337 
86 1 17.9486 8.75246 1.37621 
87 1 18.0583 8.75895 8.76167 
88 1 14.0652 1.37484 1.37579 
89 1 19.6953 3.1234 1.37563 
90 1 12.3117 7.00474 8.75103 
91 1 19.7118 7.0136 8.74264 
92 1 12.3179 3.12246 1.37587 
93 1 12.3175 7.00527 1.37463 
94 1 19.6952 3.12808 8.75237 
95 1 12.3178 3.12146 8.75353 
96 1 19.6947 7.0062 1.37628 
97 1 19.6953 1.37478 3.12339 
98 1 12.3115 8.7505 7.00521 
99 1 12.3177 1.37554 7.0057 
100 1 19.6951 8.75199 3.12488 
101 1 19.7091 8.74785 7.00798 
102 1 12.3178 1.37476 3.12299 
103 1 12.3176 8.75262 3.12183 
104 1 19.6952 1.3751 7.00649 
129 1 20.3532 0.717625 0.716878 
130 1 11.6518 9.41074 9.41086 
131 1 11.6598 9.41109 0.717562 
132 1 20.353 0.719134 9.41136 
133 1 11.6597 0.716085 9.41084 
134 1 20.3533 9.4105 0.718296 
135 1 20.3773 9.39528 9.38069 
136 1 11.6598 0.71729 0.71717 
145 2 17.8177 8.76956 10.1037 
ITEM: TIMESTEP
40
ITEM: NUMBER OF ATOMS
145
ITEM: BOX BOUNDS pp pp pp
0.0000000000000000e+00 2.1884000000000000e+01
0.0000000000000000e+00 2.1885999999999999e+01
0.0000000000000000e+00 2.1885000000000002e+01
ITEM: ATOMS id type x y z 
9 1 8.50934 12.5607 12.5613 
10 1 1.61804 19.4527 19.4526 
11 1 1.61825 19.4524 12.5602 
12 1 8.51071 12.5609 19.4528 
13 1 1.61847 12.5607 19.4525 
14 1 8.51044 19.4531 12.5607 
15 1 8.51025 19.4532 19.4527 
16 1 1.61632 12.5587 12.5586 
25 1 10.1036 10.967 10.9669 
26 1 0.0226659 21.0477 21.0489 
27 1 0.0224182 21.048 10.964 
28 1 10.1063 10.965 21.0477 
29 1 0.0227317 10.9653 21.0485 
30 1 10.1056 21.049 10.9656 
31 1 10.1058 21.0484 21.0487 
32 1 0.0182023 10.9614 10.9615 
57 1 5.81506 12.2209 12.2209 
58 1 4.31239 19.7928 19.7922 
59 1 4.31259 19.7921 12.2209 
60 1 5.81615 12.2214 19.792 
61 1 4.31273 12.2211 19.7921 
62 1 5.81642 19.7921 12.2208 
63 1 5.81585 19.7931 19.7921 
64 1 4.31138 12.2211 12.2211 
65 1 8.85027 15.2555 12.2208 
66 1 1.27888 16.7584 19.7921 
67 1 8.85005 16.7589 19.7922 
68 1 1.2792 15.254 12.2212 
69 1 1.279 16.7577 12.221 
70 1 8.85021 15.2555 19.7926 
71 1 1.27892 15.255 19.7921 
72 1 8.85014 16.7587 12.2209 
73 1 8.85013 12.2216 15.2552 
74 1 1.27886 19.7921 16.7581 
75 1 1.27904 12.221 16.7578 
76 1 8.85016 19.7931 15.2546 
77 1 8.85012 19.7931 16.7584 
78 1 1.27921 12.2212 15.254 
79 1 1.27888 19.7921 15.2547 
80 1 8.85018 12.2219 16.7587 
105 1 7.00372 12.3182 12.3184 
106 1 3.12337 19.695 19.6946 
107 1 3.12344 19.6946 12.3183 
108 1 7.0053 12.3186 19.6948 
109 1 3.12366 12.3184 19.6946 
110 1 7.00474 19.6953 12.3177 
111 1 7.00491 19.6956 19.6946 
112 1 3.12213 12.3183 12.3183 
113 1 8.75274 14.066 12.3182 
114 1 1.37616 17.9474 19.6947 
115 1 8.75255 17.9479 19.6946 
116 1 1.3763 14.0649 12.3184 
117 1 1.37632 17.9468 12.3183 
118 1 8.75271 14.0664 19.695 
119 1 1.37639 14.0659 19.6946 
120 1 8.75293 17.9477 12.3181 
121 1 8.75263 12.3186 14.0664 
122 1 1.37613 19.6947 17.9471 
123 1 1.37632 12.3184 17.9468 
124 1 8.75326 19.6961 14.0663 
125 1 8.75261 19.6956 17.9475 
126 1 1.3763 12.3184 14.0649 
127 1 1.37632 19.6946 14.0656 
128 1 8.75275 12.3192 17.9477 
137 1 9.40854 11.6619 11.6622 
138 1 0.71748 20.353 20.3537 
139 1 0.717252 20.3533 11.659 
140 1 9.41134 11.6601 20.353 
141 1 0.717575 11.66 20.3535 
142 1 9.41061 20.3536 11.6606 
143 1 9.4109 20.3536 20.3536 
144 1 0.713495 11.6558 11.6558 
1 1 19.4525 1.61805 1.61821 
2 1 12.5545 8.50986 8.50794 
3 1 12.5603 8.50985 1.61659 
4 1 19.453 1.62366 8.51087 
5 1 12.5607 1.61635 8.51031 
6 1 19.4534 8.51108 1.62502 
7 1 19.5337 8.50278 8.46389 
8 1 12.5605 1.6178 1.61844 
17 1 21.0481 0.0228444 0.0223897 
18 1 10.961 10.1076 10.1075 
19 1 10.9645 10.1062 0.0234509 
20 1 21.0472 0.0234943 10.1055 
21 1 10.9646 0.0218436 10.1056 
22 1 21.0473 10.1049 0.0225971 
23 1 21.0426 10.0985 10.0991 
24 1 10.9652 0.0225413 0.0222636 
33 1 16.7584 1.27791 1.27894 
34 1 15.275 8.82537 8.82066 
35 1 15.2553 8.84915 1.2791 
36 1 16.7594 1.27781 8.84959 
37 1 15.2555 1.27802 8.85014 
38 1 16.7591 8.84875 1.27866 
39 1 16.7067 8.85789 8.99296 
40 1 15.2549 1.27788 1.27892 
41 1 19.792 4.31277 1.27907 
42 1 12.2185 5.81642 8.84832 
43 1 19.7855 5.81567 8.85241 
44 1 12.221 4.31214 1.27876 
45 1 12.2208 5.8154 1.27814 
46 1 19.7899 4.31784 8.84994 
47 1 12.221 4.31098 8.85057 
48 1 19.7914 5.81674 1.27864 
49 1 19.792 1.27804 4.31278 
50 1 12.2184 8.84745 5.81666 
51 1 12.2208 1.27883 5.81599 
52 1 19.7908 8.8502 4.31467 
53 1 19.7873 8.85304 5.80375 
54 1 12.2209 1.27804 4.31271 
55 1 12.2209 8.84953 4.31139 
56 1 19.7916 1.27783 5.81676 
81 1 17.9474 1.37551 1.37627 
82 1 14.0611 8.76318 8.73409 
83 1 14.0662 8.75196 1.37591 
84 1 17.9479 1.37597 8.75263 
85 1 14.0664 1.37509 8.75278 
86 1 17.9478 8.752 1.37703 
87 1 18.0631 8.76205 8.76132 
88 1 14.0659 1.37541 1.37636 
89 1 19.6947 3.12379 1.37628 
90 1 12.3112 7.00438 8.75 
91 1 19.7138 7.01445 8.74086 
92 1 12.3184 3.12307 1.37644 
93 1 12.3181 7.00461 1.37516 
94 1 19.6944 3.12759 8.75153 
95 1 12.3184 3.12236 8.75314 
96 1 19.6943 7.00533 1.37709 
97 1 19.6947 1.3754 3.12399 
98 1 12.3109 8.74946 7.0047 
99 1 12.3183 1.37605 7.00504 
100 1 19.6942 8.7511 3.12303 
101 1 19.7112 8.74752 7.0061 
102 1 12.3184 1.37534 3.12361 
103 1 12.3182 8.7522 3.12263 
104 1 19.6946 1.376 7.00584 
129 1 20.3531 0.717705 0.717339 
130 1 11.651 9.40985 9.41001 
131 1 11.6598 9.41074 0.717568 
132 1 20.3529 0.719634 9.41131 
133 1 11.66 0.716588 9.41054 
134 1 20.3533 9.41056 0.718722 
135 1 20.3805 9.39442 9.37736 
136 1 11.66 0.71731 0.71742 
145 2 17.8027 8.77239 10.1132 
ITEM: TIMESTEP
50
ITEM: NUMBER OF ATOMS
145
ITEM: BOX BOUNDS pp pp pp
0.0000000000000000e+00 2.1884000000000000e+01
0.0000000000000000e+00 2.1885999999999999e+01
0.0000000000000000e+00 2.1885000000000002e+01
ITEM: ATOMS id type x y z 
9 1 8.5078 12.5624 12.5628 
10 1 1.61915 19.4516 19.4515 
11 1 1.61909 19.4513 12.5611 
12 1 8.50951 12.5621 19.4518 
13 1 1.61941 12.5617 19.4512 
14 1 8.50941 19.452 12.5617 
15 1 8.50915 19.4521 19.4516 
16 1 1.61631 12.5586 12.5586 
25 1 10.1031 10.9676 10.9677 
26 1 0.0229706 21.0475 21.0485 
27 1 0.0227068 21.0479 10.9644 
28 1 10.106 10.9653 21.0475 
29 1 0.0230837 10.9657 21.048 
30 1 10.105 21.0484 10.9662 
31 1 10.1055 21.0481 21.0483 
32 1 0.0176593 10.9615 10.9621 
57 1 5.81397 12.2216 12.2216 
58 1 4.31286 19.7921 19.7915 
59 1 4.31286 19.7915 12.2215 
60 1 5.81566 12.2219 19.7914 
61 1 4.31311 12.2217 19.7914 
62 1 5.81552 19.7915 12.2213 
63 1 5.81537 19.7924 19.7914 
64 1 4.31125 12.2219 12.2219 
65 1 8.84968 15.2558 12.2214 
66 1 1.27949 16.7578 19.7915 
67 1 8.84945 16.7584 19.7916 
68 1 1.27998 15.2542 12.222 
69 1 1.27972 16.757 12.2217 
70 1 8.84957 15.2559 19.792 
71 1 1.27958 15.2554 19.7914 
72 1 8.84957 16.7584 12.2214 
73 1 8.84959 12.2221 15.2559 
74 1 1.27947 19.7915 16.7576 
75 1 1.27974 12.2217 16.757 
76 1 8.84963 19.7926 15.2554 
77 1 8.84949 19.7925 16.758 
78 1 1.28001 12.222 15.2541 
79 1 1.27956 19.7915 15.2549 
80 1 8.84959 12.2225 16.7582 
105 1 7.00304 12.3195 12.3197 
106 1 3.12366 19.6938 19.6935 
107 1 3.12363 19.6934 12.3195 
108 1 7.00491 12.3199 19.6936 
109 1 3.12388 12.3197 19.6934 
110 1 7.00469 19.6941 12.319 
111 1 7.0046 19.6944 19.6934 
112 1 3.12175 12.3192 12.3192 
113 1 8.75147 14.0667 12.3195 
114 1 1.37738 17.9471 19.6935 
115 1 8.7513 17.9476 19.6934 
116 1 1.37712 14.0648 12.3192 
117 1 1.37751 17.9462 12.3195 
118 1 8.75152 14.0667 19.6939 
119 1 1.37762 14.0661 19.6934 
120 1 8.75174 17.9476 12.3193 
121 1 8.75131 12.3198 14.0667 
122 1 1.37733 19.6935 17.9468 
123 1 1.37753 12.3196 17.9462 
124 1 8.75201 19.6948 14.0663 
125 1 8.75139 19.6944 17.9472 
126 1 1.3772 12.3193 14.0647 
127 1 1.37751 19.6934 14.0657 
128 1 8.75157 12.3204 17.9475 
137 1 9.40845 11.6619 11.6619 
138 1 0.717571 20.3531 20.3536 
139 1 0.71725 20.3533 11.6591 
140 1 9.41116 11.6603 20.353 
141 1 0.717834 11.6602 20.3533 
142 1 9.41096 20.3539 11.6602 
143 1 9.41084 20.3536 20.3535 
144 1 0.712913 11.6558 11.656 
1 1 19.4515 1.61925 1.6194 
2 1 12.5539 8.50963 8.5061 
3 1 12.5616 8.50862 1.61787 
4 1 19.4523 1.62421 8.50995 
5 1 12.5619 1.61737 8.50927 
6 1 19.4529 8.51032 1.62438 
7 1 19.5256 8.50159 8.46288 
8 1 12.5617 1.61889 1.61952 
17 1 21.0477 0.023137 0.0227238 
18 1 10.9607 10.1066 10.1065 
19 1 10.9649 10.1059 0.0235855 
20 1 21.0467 0.0236078 10.105 
21 1 10.9652 0.0224704 10.1051 
22 1 21.0471 10.1048 0.0224953 
23 1 21.0452 10.0966 10.096 
24 1 10.9655 0.022795 0.0226471 
33 1 16.7579 1.27855 1.27957 
34 1 15.2817 8.82015 8.81572 
35 1 15.2555 8.84853 1.27963 
36 1 16.7589 1.27835 8.84891 
37 1 15.256 1.27863 8.84946 
38 1 16.7582 8.84817 1.27912 
39 1 16.7123 8.85434 9.01136 
40 1 15.2554 1.27851 1.27956 
41 1 19.7913 4.31294 1.2796 
42 1 12.2182 5.81668 8.84679 
43 1 19.787 5.81643 8.85079 
44 1 12.2216 4.31257 1.27938 
45 1 12.2214 5.81497 1.2788 
46 1 19.7882 4.3178 8.84984 
47 1 12.2216 4.31178 8.8499 
48 1 19.7908 5.8157 1.27909 
49 1 19.7913 1.27865 4.31346 
50 1 12.2178 8.84583 5.81622 
51 1 12.2214 1.27944 5.81549 
52 1 19.7899 8.85053 4.31173 
53 1 19.789 8.85268 5.80051 
54 1 12.2215 1.2787 4.31313 
55 1 12.2216 8.84889 4.31215 
56 1 19.7908 1.27839 5.81647 
81 1 17.9472 1.37677 1.37749 
82 1 14.0684 8.76095 8.72617 
83 1 14.0662 8.75075 1.37709 
84 1 17.9478 1.37768 8.75144 
85 1 14.0668 1.37626 8.75157 
86 1 17.947 8.75102 1.37854 
87 1 18.0725 8.76773 8.76841 
88 1 14.0662 1.37664 1.37755 
89 1 19.6935 3.12373 1.37759 
90 1 12.3104 7.00495 8.74785 
91 1 19.7167 7.01316 8.73809 
92 1 12.3197 3.12334 1.37763 
93 1 12.3193 7.00432 1.37632 
94 1 19.6929 3.1278 8.7504 
95 1 12.3197 3.12294 8.75224 
96 1 19.6934 7.00452 1.3786 
97 1 19.6936 1.37669 3.12432 
98 1 12.3099 8.74736 7.00487 
99 1 12.3195 1.37712 7.00482 
100 1 19.6926 8.7497 3.11988 
101 1 19.7142 8.74703 7.00178 
102 1 12.3196 1.37657 3.12385 
103 1 12.3196 8.75126 3.12317 
104 1 19.6935 1.37764 7.00538 
129 1 20.3531 0.717625 0.717595 
130 1 11.6489 9.40915 9.40932 
131 1 11.6599 9.41058 0.71757 
132 1 20.3531 0.720259 9.41133 
133 1 11.6597 0.716254 9.41084 
134 1 20.3537 9.41101 0.719216 
135 1 20.3846 9.39229 9.37347 
136 1 11.6601 0.717314 0.717493 
145 2 17.7791 8.77807 10.1251 
ITEM: TIMESTEP
60
ITEM: NUMBER OF ATOMS
145
ITEM: BOX BOUNDS pp pp pp
0.0000000000000000e+00 2.1884000000000000e+01
0.0000000000000000e+00 2.1885999999999999e+01
0.0000000000000000e+00 2.1885000000000002e+01
ITEM: ATOMS id type x y z 
9 1 8.50575 12.5639 12.5638 
10 1 1.61953 19.4512 19.4512 
11 1 1.61916 19.4508 12.5612 
12 1 8.50904 12.5626 19.4516 
13 1 1.6198 12.5621 19.4504 
14 1 8.50855 19.4517 12.5625 
15 1 8.50877 19.4518 19.4514 
16 1 1.61511 12.5586 12.5583 
25 1 10.1037 10.9667 10.9668 
26 1 0.0232589 21.0475 21.0483 
27 1 0.0227963 21.0479 10.9645 
28 1 10.1055 10.9657 21.0474 
29 1 0.0237251 10.9662 21.0473 
30 1 10.1057 21.0489 10.9653 
31 1 10.1053 21.0481 21.048 
32 1 0.0163534 10.9603 10.9619 
57 1 5.81243 12.2228 12.2229 
58 1 4.31327 19.7909 19.7903 
59 1 4.31314 19.7902 12.2228 
60 1 5.81501 12.2231 19.7902 
61 1 4.31338 12.223 19.7902 
62 1 5.81502 19.7904 12.2225 
63 1 5.81486 19.7912 19.7902 
64 1 4.31107 12.2232 12.2232 
65 1 8.84859 15.2565 12.2225 
66 1 1.28069 16.7573 19.7903 
67 1 8.84826 16.7579 19.7904 
68 1 1.28142 15.254 12.2234 
69 1 1.28115 16.756 12.2231 
70 1 8.84839 15.2565 19.7907 
71 1 1.28083 15.2557 19.7902 
72 1 8.84848 16.7581 12.2226 
73 1 8.84852 12.2232 15.2564 
74 1 1.2807 19.7902 16.7569 
75 1 1.28113 12.2231 16.7559 
76 1 8.84852 19.7915 15.2558 
77 1 8.84831 19.7913 16.7574 
78 1 1.28147 12.2234 15.254 
79 1 1.28085 19.7902 15.2552 
80 1 8.84848 12.2235 16.758 
105 1 7.00175 12.3218 12.3219 
106 1 3.12401 19.6918 19.6914 
107 1 3.12387 19.6913 12.3215 
108 1 7.00431 12.322 19.6916 
109 1 3.12422 12.3218 19.6913 
110 1 7.0041 19.6919 12.3213 
111 1 7.00416 19.6923 19.6914 
112 1 3.12162 12.3201 12.3201 
113 1 8.74903 14.0674 12.3218 
114 1 1.37942 17.9466 19.6915 
115 1 8.74923 17.9472 19.6914 
116 1 1.37822 14.0643 12.3206 
117 1 1.37948 17.9453 12.3215 
118 1 8.74951 14.0672 19.6919 
119 1 1.37966 14.0665 19.6913 
120 1 8.74963 17.9471 12.3215 
121 1 8.74894 12.3222 14.0673 
122 1 1.37933 19.6915 17.9462 
123 1 1.37956 12.3216 17.945 
124 1 8.7497 19.6926 14.0667 
125 1 8.74936 19.6924 17.9467 
126 1 1.37828 12.3207 14.0643 
127 1 1.37949 19.6913 14.066 
128 1 8.74953 12.3225 17.9473 
137 1 9.40836 11.6624 11.6627 
138 1 0.71796 20.3527 20.3529 
139 1 0.717545 20.3528 11.6595 
140 1 9.41078 11.6606 20.3528 
141 1 0.718529 11.6609 20.3522 
142 1 9.40971 20.3529 11.6613 
143 1 9.41044 20.3532 20.353 
144 1 0.71062 11.6545 11.6553 
1 1 19.4512 1.61913 1.61997 
2 1 12.5574 8.51049 8.50438 
3 1 12.5617 8.50816 1.61921 
4 1 19.4521 1.62444 8.50954 
5 1 12.5627 1.61858 8.50874 
6 1 19.4522 8.50929 1.62002 
7 1 19.5069 8.5027 8.46022 
8 1 12.562 1.61913 1.61981 
17 1 21.0474 0.0230515 0.022899 
18 1 10.9593 10.1054 10.1054 
19 1 10.9654 10.1056 0.0234922 
20 1 21.047 0.0239058 10.1054 
21 1 10.9649 0.0220198 10.1056 
22 1 21.0482 10.1058 0.0223958 
23 1 21.0496 10.0921 10.089 
24 1 10.9656 0.0228186 0.0230008 
33 1 16.7574 1.27978 1.28072 
34 1 15.2946 8.81377 8.81038 
35 1 15.2552 8.84734 1.28045 