LAMMPS (3 Mar 2020)
Reading data file ...
  orthogonal box = (0 0 0) to (21.884 21.886 21.885)
  2 by 2 by 2 MPI processor grid
  reading atoms ...
  145 atoms
  read_data CPU = 0.0522757 secs
WARNING: Changed valency_val to valency_boc for X (../reaxc_ffield.cpp:315)
WARNING: Using 'neigh_modify every 1 delay 0 check yes' setting during minimization (../min.cpp:190)
Neighbor list info ...
  update every 1 steps, delay 0 steps, check yes
  max neighbors/atom: 2000, page size: 100000
  master list distance cutoff = 12
  ghost atom cutoff = 12
  binsize = 6, bins = 4 4 4
  2 neighbor lists, perpetual/occasional/extra = 2 0 0
  (1) pair reax/c, perpetual
      attributes: half, newton off, ghost
      pair build: half/bin/newtoff/ghost
      stencil: half/ghost/bin/3d/newtoff
      bin: standard
  (2) fix qeq/reax, perpetual, copy from (1)
      attributes: half, newton off, ghost
      pair build: copy
      stencil: none
      bin: none
Setting up cg style minimization ...
  Unit style    : real
  Current step  : 0
Per MPI rank memory allocation (min/avg/max) = 16.9 | 17.94 | 21.02 Mbytes
Step Temp E_pair E_mol TotEng Press 
       0            0   -25570.155            0   -25570.155   -32686.908 
      78            0   -25752.824            0   -25752.824    -4330.163 
Loop time of 1.92043 on 8 procs for 78 steps with 145 atoms

99.3% CPU use with 8 MPI tasks x no OpenMP threads

Minimization stats:
  Stopping criterion = linesearch alpha is zero
  Energy initial, next-to-last, final = 
        -25570.1553435     -25752.8238317      -25752.823832
  Force two-norm initial, final = 2142.15 39.0127
  Force max component initial, final = 445.066 19.9437
  Final line search alpha, max atom move = 4.46499e-12 8.90487e-11
  Iterations, force evaluations = 78 558

MPI task timing breakdown:
Section |  min time  |  avg time  |  max time  |%varavg| %total
---------------------------------------------------------------
Pair    | 0.685      | 0.88486    | 1.4576     |  34.8 | 46.08
Neigh   | 0          | 0          | 0          |   0.0 |  0.00
Comm    | 0.014016   | 0.58237    | 0.78673    |  42.5 | 30.32
Output  | 0.00045815 | 0.00050733 | 0.00068311 |   0.0 |  0.03
Modify  | 0.44415    | 0.44464    | 0.44507    |   0.0 | 23.15
Other   |            | 0.008054   |            |       |  0.42

Nlocal:    18.125 ave 73 max 0 min
Histogram: 6 0 0 0 0 0 0 0 0 2
Nghost:    578.125 ave 659 max 550 min
Histogram: 6 0 0 0 0 0 0 0 0 2
Neighs:    1126.62 ave 4539 max 0 min
Histogram: 6 0 0 0 0 0 0 0 0 2

Total # of neighbors = 9013
Ave neighs/atom = 62.1586
Neighbor list builds = 0
Dangerous builds = 0
WARNING: Using 'neigh_modify every 1 delay 0 check yes' setting during minimization (../min.cpp:190)
Setting up cg style minimization ...
  Unit style    : real
  Current step  : 78
Per MPI rank memory allocation (min/avg/max) = 16.9 | 17.94 | 21.02 Mbytes
Step Temp E_pair E_mol TotEng Press 
      78            0   -25752.824            0   -25752.824   -4330.1618 
      79            0   -25752.824            0   -25752.824   -4330.1618 
Loop time of 0.181431 on 8 procs for 1 steps with 145 atoms

99.4% CPU use with 8 MPI tasks x no OpenMP threads

Minimization stats:
  Stopping criterion = linesearch alpha is zero
  Energy initial, next-to-last, final = 
        -25752.8238303     -25752.8238303     -25752.8238308
  Force two-norm initial, final = 39.0126 39.0127
  Force max component initial, final = 19.943 19.9439
  Final line search alpha, max atom move = 4.66993e-12 9.31365e-11
  Iterations, force evaluations = 1 57

MPI task timing breakdown:
Section |  min time  |  avg time  |  max time  |%varavg| %total
---------------------------------------------------------------
Pair    | 0.067535   | 0.088633   | 0.14878    |  11.6 | 48.85
Neigh   | 0          | 0          | 0          |   0.0 |  0.00
Comm    | 0.0013738  | 0.06135    | 0.082635   |  13.9 | 33.81
Output  | 0          | 0          | 0          |   0.0 |  0.00
Modify  | 0.030833   | 0.03089    | 0.030929   |   0.0 | 17.03
Other   |            | 0.0005576  |            |       |  0.31

Nlocal:    18.125 ave 73 max 0 min
Histogram: 6 0 0 0 0 0 0 0 0 2
Nghost:    578.125 ave 659 max 550 min
Histogram: 6 0 0 0 0 0 0 0 0 2
Neighs:    1126.38 ave 4538 max 0 min
Histogram: 6 0 0 0 0 0 0 0 0 2

Total # of neighbors = 9011
Ave neighs/atom = 62.1448
Neighbor list builds = 0
Dangerous builds = 0
WARNING: Using 'neigh_modify every 1 delay 0 check yes' setting during minimization (../min.cpp:190)
Setting up cg style minimization ...
  Unit style    : real
  Current step  : 79
WARNING: Energy due to 3 extra global DOFs will be included in minimizer energies
Per MPI rank memory allocation (min/avg/max) = 16.9 | 17.94 | 21.02 Mbytes
Step Temp E_pair E_mol TotEng Press Volume 
      79            0   -25752.824            0   -25752.824   -4330.1621    10481.891 
      84            0   -25752.828            0   -25752.828   -4255.1556    10481.819 
Loop time of 0.219122 on 8 procs for 5 steps with 145 atoms

99.4% CPU use with 8 MPI tasks x no OpenMP threads

Minimization stats:
  Stopping criterion = energy tolerance
  Energy initial, next-to-last, final = 
        -25752.8238307     -25752.8281947     -25752.8283764
  Force two-norm initial, final = 1151.61 1132.06
  Force max component initial, final = 706.278 695.195
  Final line search alpha, max atom move = 1.40375e-10 9.75883e-08
  Iterations, force evaluations = 5 72

MPI task timing breakdown:
Section |  min time  |  avg time  |  max time  |%varavg| %total
---------------------------------------------------------------
Pair    | 0.08567    | 0.11145    | 0.18642    |  12.8 | 50.86
Neigh   | 0          | 0          | 0          |   0.0 |  0.00
Comm    | 0.0015242  | 0.076025   | 0.10229    |  15.4 | 34.70
Output  | 6.3899e-05 | 6.8879e-05 | 8.1562e-05 |   0.0 |  0.03
Modify  | 0.029836   | 0.029902   | 0.029937   |   0.0 | 13.65
Other   |            | 0.001674   |            |       |  0.76

Nlocal:    18.125 ave 73 max 0 min
Histogram: 6 0 0 0 0 0 0 0 0 2
Nghost:    578.125 ave 659 max 550 min
Histogram: 6 0 0 0 0 0 0 0 0 2
Neighs:    1126.38 ave 4538 max 0 min
Histogram: 6 0 0 0 0 0 0 0 0 2

Total # of neighbors = 9011
Ave neighs/atom = 62.1448
Neighbor list builds = 0
Dangerous builds = 0
WARNING: Using 'neigh_modify every 1 delay 0 check yes' setting during minimization (../min.cpp:190)
Setting up cg style minimization ...
  Unit style    : real
  Current step  : 84
Per MPI rank memory allocation (min/avg/max) = 16.9 | 17.94 | 21.02 Mbytes
Step Temp E_pair E_mol TotEng Press 
      84            0   -25752.828            0   -25752.828   -4255.1536 
      85            0   -25752.828            0   -25752.828   -4255.1571 
Loop time of 0.166236 on 8 procs for 1 steps with 145 atoms

99.2% CPU use with 8 MPI tasks x no OpenMP threads

Minimization stats:
  Stopping criterion = energy tolerance
  Energy initial, next-to-last, final = 
        -25752.8283747     -25752.8283747      -25752.828378
  Force two-norm initial, final = 39.0685 39.0684
  Force max component initial, final = 19.9239 19.9246
  Final line search alpha, max atom move = 1.86976e-11 3.72542e-10
  Iterations, force evaluations = 1 53

MPI task timing breakdown:
Section |  min time  |  avg time  |  max time  |%varavg| %total
---------------------------------------------------------------
Pair    | 0.062345   | 0.082097   | 0.13845    |  11.3 | 49.39
Neigh   | 0          | 0          | 0          |   0.0 |  0.00
Comm    | 0.0012951  | 0.057484   | 0.077394   |  13.5 | 34.58
Output  | 0          | 0          | 0          |   0.0 |  0.00
Modify  | 0.026092   | 0.026142   | 0.026185   |   0.0 | 15.73
Other   |            | 0.0005143  |            |       |  0.31

Nlocal:    18.125 ave 73 max 0 min
Histogram: 6 0 0 0 0 0 0 0 0 2
Nghost:    578.125 ave 659 max 550 min
Histogram: 6 0 0 0 0 0 0 0 0 2
Neighs:    1126.38 ave 4538 max 0 min
Histogram: 6 0 0 0 0 0 0 0 0 2

Total # of neighbors = 9011
Ave neighs/atom = 62.1448
Neighbor list builds = 0
Dangerous builds = 0
WARNING: Using 'neigh_modify every 1 delay 0 check yes' setting during minimization (../min.cpp:190)
Setting up cg style minimization ...
  Unit style    : real
  Current step  : 85
WARNING: Energy due to 3 extra global DOFs will be included in minimizer energies
Per MPI rank memory allocation (min/avg/max) = 16.9 | 17.94 | 21.02 Mbytes
Step Temp E_pair E_mol TotEng Press Volume 
      85            0   -25752.828            0   -25752.828   -4255.1555    10481.819 
      86            0   -25752.829            0   -25752.829   -4251.3601    10481.817 
Loop time of 0.0539267 on 8 procs for 1 steps with 145 atoms

98.8% CPU use with 8 MPI tasks x no OpenMP threads

Minimization stats:
  Stopping criterion = energy tolerance
  Energy initial, next-to-last, final = 
        -25752.8283762     -25752.8283762     -25752.8285572
  Force two-norm initial, final = 1132.06 1131.09
  Force max component initial, final = 695.193 694.702
  Final line search alpha, max atom move = 1.40474e-10 9.75873e-08
  Iterations, force evaluations = 1 17

MPI task timing breakdown:
Section |  min time  |  avg time  |  max time  |%varavg| %total
---------------------------------------------------------------
Pair    | 0.020919   | 0.027324   | 0.04598    |   6.4 | 50.67
Neigh   | 0          | 0          | 0          |   0.0 |  0.00
Comm    | 0.00037588 | 0.018906   | 0.025437   |   7.7 | 35.06
Output  | 0          | 0          | 0          |   0.0 |  0.00
Modify  | 0.0071905  | 0.0072031  | 0.0072116  |   0.0 | 13.36
Other   |            | 0.0004932  |            |       |  0.91

Nlocal:    18.125 ave 73 max 0 min
Histogram: 6 0 0 0 0 0 0 0 0 2
Nghost:    578.125 ave 659 max 550 min
Histogram: 6 0 0 0 0 0 0 0 0 2
Neighs:    1126.38 ave 4538 max 0 min
Histogram: 6 0 0 0 0 0 0 0 0 2

Total # of neighbors = 9011
Ave neighs/atom = 62.1448
Neighbor list builds = 0
Dangerous builds = 0
WARNING: Using 'neigh_modify every 1 delay 0 check yes' setting during minimization (../min.cpp:190)
Setting up cg style minimization ...
  Unit style    : real
  Current step  : 86
Per MPI rank memory allocation (min/avg/max) = 16.9 | 17.94 | 21.02 Mbytes
Step Temp E_pair E_mol TotEng Press 
      86            0   -25752.829            0   -25752.829   -4251.3588 
      87            0   -25752.829            0   -25752.829   -4251.3578 
Loop time of 0.176505 on 8 procs for 1 steps with 145 atoms

99.3% CPU use with 8 MPI tasks x no OpenMP threads

Minimization stats:
  Stopping criterion = linesearch alpha is zero
  Energy initial, next-to-last, final = 
        -25752.8285559     -25752.8285559     -25752.8285541
  Force two-norm initial, final = 39.1077 39.1075
  Force max component initial, final = 19.9233 19.9228
  Final line search alpha, max atom move = 4.67454e-12 9.313e-11
  Iterations, force evaluations = 1 56

MPI task timing breakdown:
Section |  min time  |  avg time  |  max time  |%varavg| %total
---------------------------------------------------------------
Pair    | 0.066997   | 0.087395   | 0.14686    |  11.6 | 49.51
Neigh   | 0          | 0          | 0          |   0.0 |  0.00
Comm    | 0.0020145  | 0.061021   | 0.081865   |  13.8 | 34.57
Output  | 0          | 0          | 0          |   0.0 |  0.00
Modify  | 0.02711    | 0.02717    | 0.027208   |   0.0 | 15.39
Other   |            | 0.0009189  |            |       |  0.52

Nlocal:    18.125 ave 73 max 0 min
Histogram: 6 0 0 0 0 0 0 0 0 2
Nghost:    578.125 ave 659 max 550 min
Histogram: 6 0 0 0 0 0 0 0 0 2
Neighs:    1126.38 ave 4538 max 0 min
Histogram: 6 0 0 0 0 0 0 0 0 2

Total # of neighbors = 9011
Ave neighs/atom = 62.1448
Neighbor list builds = 0
Dangerous builds = 0
Setting up Verlet run ...
  Unit style    : real
  Current step  : 0
  Time step     : 0.25
Per MPI rank memory allocation (min/avg/max) = 15.77 | 16.82 | 19.89 Mbytes
Step Temp TotEng KinEng PotEng Press 
       0          300   -25624.058    128.77099   -25752.829    -3689.777 
     200    218.50589   -25579.868    93.790734   -25673.659   -443.91272 
     400     293.2204    -25518.92    125.86094   -25644.781    822.64101 
     600    282.73695   -25511.465    121.36106   -25632.826   -639.49802 
     800    307.63345   -25515.855    132.04755   -25647.903    5625.8298 
    1000    307.21749   -25504.783    131.86901   -25636.652    2610.6064 
    1200    308.66405   -25484.033    132.48992   -25616.523   -2368.7531 
    1400    312.29818   -25502.261    134.04983   -25636.311   -2154.2839 
    1600    287.88945   -25518.813     123.5727   -25642.385    6880.5991 
    1800    324.01454    -25501.52    139.07891   -25640.599   -5834.3983 
    2000    266.03952   -25530.467    114.19391    -25644.66   -8229.8157 
    2200     316.8776   -25522.278    136.01548   -25658.294   -7466.6045 
    2400    273.65402   -25544.564    117.46233   -25662.027   -148.41666 
    2600    309.84319   -25513.436    132.99605   -25646.432   -604.72288 
    2800    303.86864   -25512.967    130.43156   -25643.398   -464.42984 
    3000    272.29452   -25528.802    116.87879    -25645.68    2002.9798 
    3200    295.69774   -25502.988    126.92431   -25629.912    751.79054 
    3400    298.69553   -25494.563    128.21107   -25622.774    5886.6337 
    3600    305.57529   -25503.546    131.16411    -25634.71   -3247.7065 
    3800    329.36487   -25489.565    141.37547    -25630.94    5727.8347 
    4000    278.80006   -25517.482     119.6712   -25637.153    95.359078 
    4200    276.27646   -25511.483    118.58798   -25630.071   -2127.1657 
    4400    349.54601   -25476.941    150.03796   -25626.978    1731.9839 
    4600    285.84717   -25513.415    122.69608   -25636.111   -968.67254 
    4800    285.79165   -25516.276    122.67225   -25638.948    142.93347 
    5000    340.74707   -25495.404    146.26113   -25641.665   -2174.7495 
    5200      277.183   -25523.691     118.9771   -25642.668    6274.3874 
    5400    276.91874     -25512.1    118.86367   -25630.964     855.7626 
    5600    325.47526   -25503.627    139.70591   -25643.333    307.20477 
    5800    301.22749    -25513.26    129.29788   -25642.558    3267.5102 
    6000    340.89743   -25491.155    146.32567   -25637.481    6395.4226 
    6200    274.97261   -25522.217    118.02832   -25640.246    2028.9385 
    6400    314.25184   -25509.039    134.88841   -25643.927    4681.1334 
    6600    268.09398   -25517.445    115.07576   -25632.521    3053.5367 
    6800    309.31508   -25514.476    132.76937   -25647.245   -6140.9501 
    7000     302.0749   -25506.885    129.66162   -25636.547    826.71383 
    7200    301.67096   -25517.479    129.48823   -25646.967   -2268.2102 
    7400    307.04276   -25525.061      131.794   -25656.855    2470.8683 
    7600    264.40611   -25534.806    113.49279   -25648.299    603.51614 
    7800    306.88189   -25507.552    131.72495   -25639.277   -1498.5276 
    8000    266.30481    -25522.58    114.30778   -25636.888    7621.0924 
    8200    292.71475   -25509.379     125.6439   -25635.023   -666.76963 
    8400    297.91492   -25503.509      127.876   -25631.385    6755.2071 
    8600    287.93691   -25510.803    123.59307   -25634.396   -793.48329 
    8800    340.15693   -25489.221    146.00782   -25635.229   -924.95647 
    9000    298.58902   -25517.542    128.16535   -25645.707     733.9247 
    9200    289.75334   -25521.436    124.37275   -25645.808    2448.8981 
    9400     268.7382   -25545.802    115.35228   -25661.154     5489.864 
    9600    295.48267    -25513.03    126.83199   -25639.862   -4808.7284 
    9800     278.5928   -25514.022    119.58224   -25633.604    1211.0974 
   10000    311.60582   -25499.435    133.75264   -25633.188    2808.0501 
   10200    322.48964   -25493.018    138.42437   -25631.442    12047.015 
   10400      303.759   -25504.811    130.38449   -25635.196   -2767.8941 
   10600    343.21727   -25487.968    147.32143   -25635.289   -6513.7016 
   10800    290.05887   -25521.012     124.5039   -25645.516    8757.8921 
   11000    299.29893   -25510.418    128.47007   -25638.888   -2391.3163 
   11200     303.6962   -25499.346    130.35754   -25629.703   -3457.8153 
   11400     281.4205   -25514.393    120.79599   -25635.189   -3187.7705 
   11600    277.26212   -25518.838    119.01106   -25637.849   -7856.3683 
   11800    342.97725   -25483.068     147.2184   -25630.286   -1003.6589 
   12000    295.82042   -25503.247    126.97697   -25630.224    2031.6132 
   12200    302.68025   -25508.326    129.92146   -25638.248    14.743263 
   12400    324.13136   -25479.311    139.12906    -25618.44   -1701.9512 
   12600    283.17236   -25501.622    121.54795    -25623.17   -3726.6361 
   12800    313.90459   -25503.337    134.73935   -25638.077   -2263.2287 
   13000     301.1849    -25502.31     129.2796    -25631.59   -2277.6877 
   13200    283.65299   -25527.832    121.75426   -25649.586    2906.8787 
   13400    307.86607   -25500.905     132.1474   -25633.052   -6015.1956 
   13600    312.47317   -25505.113    134.12493   -25639.238    4162.5403 
   13800     285.4429   -25535.127    122.52255   -25657.649   -197.84658 
   14000     331.8868   -25507.106    142.45798   -25649.563   -1997.9569 
   14200    292.43934   -25506.729    125.52568   -25632.255    3715.3222 
   14400    283.19986   -25527.637    121.55976   -25649.197     5600.852 
   14600    274.09701   -25538.129    117.65248   -25655.782   -923.90601 
   14800    331.06393   -25503.308    142.10477   -25645.413   -2084.7729 
   15000    289.03766   -25518.499    124.06556   -25642.565   -3130.7978 
   15200    320.39577       -25499    137.52561   -25636.526    3681.2036 
   15400    290.37075   -25508.721    124.63777   -25633.358   -3199.9227 
   15600    277.96971   -25525.931    119.31479   -25645.246    2586.9936 
   15800    277.55218   -25529.398    119.13557   -25648.534   -124.53824 
   16000    324.88895   -25508.565    139.45424   -25648.019    2906.8858 
   16200    304.84051   -25532.931    130.84872    -25663.78    -8054.893 
   16400    318.96583   -25520.806    136.91182   -25657.717    6285.1235 
   16600    301.38104   -25511.489    129.36379   -25640.852    4556.1584 
   16800    283.11421   -25540.811      121.523   -25662.334    5139.0375 
   17000    289.42402   -25527.752    124.23139   -25651.983   -559.89312 
   17200    283.26551   -25517.723    121.58794   -25639.311    1376.0233 
   17400    334.26898   -25482.427    143.48049   -25625.908     2392.463 
   17600    324.98463   -25495.253    139.49531   -25634.748   -1741.4319 
   17800    348.38754   -25500.987     149.5407   -25650.527    3377.9294 
   18000     290.3707   -25522.063    124.63774   -25646.701    4179.7827 
   18200    329.00156   -25485.341    141.21953   -25626.561   -1925.2571 
   18400    279.05127   -25510.319    119.77903   -25630.098   -2838.4985 
   18600    294.37157   -25518.527    126.35507   -25644.882   -3226.1606 
   18800    258.16954   -25537.544    110.81583    -25648.36    204.66726 
   19000    289.74109   -25521.492     124.3675    -25645.86    2721.1007 
   19200    315.35092   -25498.713    135.36017   -25634.073   -2876.4918 
   19400     297.1004   -25513.171    127.52638   -25640.698    7570.9844 
   19600    284.82848   -25518.771    122.25882    -25641.03    3695.0399 
   19800    287.24438   -25496.442    123.29581   -25619.738   -2065.9328 
   20000     331.7487   -25484.319     142.3987   -25626.718    6450.3497 
   20200    274.42485   -25516.699     117.7932   -25634.492   -1948.7705 
   20400    309.24269   -25509.134    132.73829   -25641.873     1953.168 
   20600    275.19067   -25527.594    118.12192   -25645.716    248.85296 
   20800    313.81207   -25504.673    134.69964   -25639.373    3811.1574 
   21000    290.59132   -25510.484    124.73244   -25635.216   -94.838019 
   21200    300.11422   -25526.974    128.82002   -25655.794    4014.1342 
   21400    288.47187   -25528.491     123.8227   -25652.313    3311.2791 
   21600    304.85365   -25502.513    130.85436   -25633.367    397.25879 
   21800    278.50804   -25522.956    119.54586   -25642.502   -352.99381 
   22000    306.70309   -25523.791    131.64821   -25655.439   -985.41553 
   22200     295.8029    -25506.45    126.96944    -25633.42    4575.0714 
   22400    310.72716    -25509.38    133.37549   -25642.755    4275.3264 
   22600    301.92337   -25530.677    129.59658   -25660.273   -3575.3719 
   22800    280.50101   -25507.647    120.40131   -25628.049    2080.0757 
   23000    320.79508   -25503.519    137.69701   -25641.216   -5547.1283 
   23200    286.24631   -25536.548    122.86741   -25659.415    5702.2979 
   23400    304.38242   -25511.901    130.65209   -25642.553    1204.1227 
   23600    309.65535   -25517.244    132.91542    -25650.16   -1229.8975 
   23800    287.06399   -25549.214    123.21839   -25672.433   -2315.4349 
   24000    271.44699   -25533.149    116.51499   -25649.664   -2995.5572 
   24200    281.57917   -25516.482     120.8641   -25637.346    1413.7132 
   24400    297.76665   -25499.805    127.81236   -25627.617   -1806.5348 
   24600     290.6378   -25516.117    124.75239   -25640.869    397.90157 
   24800    280.46697   -25518.557     120.3867   -25638.943   -4698.8549 
   25000    311.21155    -25502.34     133.5834   -25635.924   -2995.6727 
   25200    294.72147   -25522.543    126.50526   -25649.048   -7401.2646 
   25400    315.68929   -25518.878    135.50541   -25654.383    9484.0878 
   25600    301.30852   -25521.335    129.33266   -25650.667    3306.8054 
   25800    313.97419    -25492.89    134.76923    -25627.66   -67.954742 
   26000    293.52399   -25528.206    125.99125   -25654.197    221.29306 
   26200    292.57721   -25512.227    125.58486   -25637.812    3662.8837 
   26400    316.46086   -25498.319     135.8366   -25634.156   -2257.7197 
   26600    272.78316   -25522.834    117.08853   -25639.922    1917.4639 
   26800    296.10843   -25500.372    127.10059   -25627.472    3775.0962 
   27000    310.52764   -25491.161    133.28984   -25624.451   -1202.1099 
   27200    305.25502   -25514.381    131.02664   -25645.407    2338.2473 
   27400    281.43451   -25512.945      120.802   -25633.747    5146.3693 
   27600    324.87548   -25499.586    139.44846   -25639.035   -209.96458 
   27800    267.27637   -25517.195    114.72481    -25631.92    3099.6745 
   28000    319.96501    -25496.15    137.34071   -25633.491    2642.9327 
   28200    274.84601   -25526.155    117.97398   -25644.129   -7396.4058 
   28400    315.34576   -25514.802    135.35796    -25650.16    2242.6313 
   28600    269.19556   -25526.474     115.5486   -25642.023   -9557.6917 
   28800    302.08869   -25503.579    129.66754   -25633.247    7388.6108 
   29000    321.39108   -25498.187    137.95283   -25636.139    1846.4012 
   29200    261.61417   -25523.329    112.29439   -25635.623   -3165.0997 
   29400     308.2842     -25506.7    132.32688   -25639.027   -277.42525 
   29600    298.33283   -25510.292    128.05538   -25638.348   -2568.2324 
   29800    333.21763   -25506.678    143.02922   -25649.707   -3923.3371 
   30000    295.99345   -25510.224    127.05124   -25637.276    8159.4156 
   30200    278.34455   -25519.099    119.47568   -25638.575    156.47688 
   30400    311.12343   -25504.608    133.54558   -25638.154   -1345.6046 
   30600    271.81888   -25527.373    116.67463   -25644.048   -6564.4424 
   30800    308.70276   -25510.683    132.50654    -25643.19    2885.3521 
   31000     286.2297   -25525.706    122.86028   -25648.566    3149.6421 
   31200    265.41836   -25539.945    113.92729   -25653.872    4203.1727 
   31400    308.26019    -25505.27    132.31657   -25637.586    3892.4585 
   31600    279.43102   -25513.859    119.94203   -25633.801    562.62382 
   31800    283.23219    -25526.82    121.57364   -25648.393    97.965841 
   32000    305.60483       -25513    131.17679   -25644.177   -5281.1223 
   32200    280.91478   -25510.282    120.57892   -25630.861   -3023.9664 
   32400    266.66903   -25524.128    114.46412   -25638.592    6451.9207 
   32600    296.98008   -25507.989    127.47473   -25635.463    6131.3438 
   32800    309.61495   -25503.384    132.89808   -25636.283    -1356.838 
   33000    304.82749   -25523.377    130.84313    -25654.22   -3873.7103 
   33200    279.30588   -25523.022    119.88832    -25642.91    7106.7807 
   33400    325.70141   -25493.716    139.80298   -25633.519    2262.2556 
   33600     274.7439   -25516.894    117.93015   -25634.824   -2149.5579 
   33800    279.40679   -25509.332    119.93163   -25629.264    11375.012 
   34000    327.31347   -25495.399    140.49494   -25635.894   -3006.0418 
   34200    290.82839    -25522.71     124.8342   -25647.544     2226.955 
   34400    293.88295   -25508.118    126.14533   -25634.264     3949.563 
   34600    292.71725   -25509.573    125.64497   -25635.218   -1516.5196 
   34800    306.80101   -25508.142    131.69024   -25639.832   -1455.8127 
   35000    299.28557   -25507.402    128.46433   -25635.866   -1830.8691 
   35200    275.98056    -25529.58    118.46097   -25648.041   -2327.0761 
   35400    301.31092   -25509.965    129.33369   -25639.298    4028.0078 
   35600    268.41168    -25502.64    115.21213   -25617.853    6634.5981 
   35800    338.62895   -25484.561    145.35195   -25629.913    3791.0563 
   36000    289.40625   -25501.078    124.22377   -25625.301   -1524.2096 
   36200    296.03545   -25515.592    127.06926   -25642.661    570.18556 
   36400    274.92214   -25529.631    118.00666   -25647.638    4339.7361 
   36600    320.84931   -25505.401    137.72028   -25643.121   -5693.3056 
   36800    276.63776   -25519.582    118.74306   -25638.325    3572.5506 
   37000    286.82764   -25536.077    123.11693   -25659.194    3201.7135 
   37200    324.92431   -25506.978    139.46942   -25646.448    719.29964 
   37400    324.80234     -25496.9    139.41707   -25636.317   -5696.6456 
   37600     275.8862   -25518.458    118.42047   -25636.879   -3833.1823 
   37800    290.83024   -25514.211      124.835   -25639.046    2885.4289 
   38000    315.19096   -25495.115    135.29151   -25630.406   -765.27063 
   38200    259.55301   -25526.643    111.40966   -25638.053     2747.046 
   38400    303.03206   -25505.925    130.07247   -25635.998   -2511.7929 
   38600    254.49868   -25525.923    109.24016   -25635.163    7235.3772 
   38800    266.03008   -25547.215    114.18986   -25661.405    3342.8872 
   39000    307.46791   -25516.679    131.97649   -25648.655   -8086.8589 
   39200    305.01697   -25509.323    130.92446   -25640.247    1559.8638 
   39400    297.85421   -25501.459    127.84994   -25629.309   -618.51538 
   39600     258.6805   -25528.436    111.03515   -25639.472    1355.8808 
   39800     329.9296   -25511.561    141.61788   -25653.179    523.12594 
   40000    331.20959   -25487.787    142.16729   -25629.955    1043.4658 
   40200    303.75311   -25502.231    130.38197   -25632.613   -2376.0145 
   40400    286.32935   -25527.245    122.90305   -25650.148    4041.2344 
   40600    317.05406   -25509.582    136.09122   -25645.673   -2536.5412 
   40800    308.25748   -25497.892    132.31541   -25630.208   -7817.9739 
   41000    295.27503   -25516.391    126.74286   -25643.133    -5114.225 
   41200    311.83179    -25514.35    133.84963   -25648.199   -7074.8439 
   41400    298.45731   -25513.788    128.10881   -25641.896   -50.584118 
   41600    294.51464    -25495.13    126.41648   -25621.546   -126.39249 
   41800    285.37411   -25520.295    122.49303   -25642.788    3861.1274 
   42000    262.88556   -25528.213    112.84012   -25641.053    233.83985 
   42200    297.82185   -25502.449    127.83605   -25630.285   -335.49197 
   42400    337.65659    -25482.66    144.93458   -25627.594   -5125.1376 
   42600    300.03751    -25518.92    128.78709   -25647.707    3793.6851 
   42800    299.98099   -25508.456    128.76283   -25637.219   -906.57465 
   43000    301.00092     -25494.4    129.20063   -25623.601   -5151.4765 
   43200    264.69935    -25528.64    113.61866   -25642.259    7202.1249 
   43400    295.97499   -25507.429    127.04331   -25634.473   -2220.1124 
   43600     334.2926   -25493.042    143.49063   -25636.533    3389.0672 
   43800    304.35461   -25505.785    130.64015   -25636.425   -7255.2605 
   44000    286.97482   -25521.757    123.18011   -25644.937    5849.4813 
   44200    282.10667   -25528.691    121.09052   -25649.782    4913.2374 
   44400    301.58203   -25495.355    129.45006   -25624.805   -9801.9418 
   44600    283.73695   -25510.725     121.7903   -25632.515    2806.1487 
   44800    253.43587   -25535.144    108.78396   -25643.928    1832.0335 
   45000    278.07864   -25507.874    119.36154   -25627.236   -3820.6052 
   45200    345.57777   -25490.045    148.33464    -25638.38    4331.0782 
   45400    282.90664   -25516.716     121.4339    -25638.15   -8188.6746 
   45600    274.64078   -25514.004    117.88589    -25631.89   -2983.5529 
   45800    313.41732   -25491.867     134.5302   -25626.397    1783.4162 
   46000    305.82414   -25519.792    131.27093   -25651.063   -1798.3184 
   46200     293.3447   -25518.092     125.9143   -25644.007   -2849.7271 
   46400    341.88623   -25477.776     146.7501   -25624.526    2603.0717 
   46600    323.44165    -25498.63    138.83301   -25637.463    310.10568 
   46800    286.02611    -25516.05    122.77289   -25638.823    3946.3933 
   47000    294.42423   -25512.244    126.37767   -25638.622   -3529.2985 
   47200    329.96798    -25502.66    141.63435   -25644.295   -3441.6075 
   47400    263.14884    -25527.69    112.95313   -25640.643   -845.56426 
   47600     332.5549    -25500.14    142.74475   -25642.884   -4157.9707 
   47800    301.47565   -25515.628     129.4044   -25645.032     3061.726 
   48000    272.03812   -25538.931    116.76873   -25655.699   -1466.0963 
   48200     313.9302   -25512.007    134.75035   -25646.758   -4043.7727 
   48400    299.98222   -25512.382    128.76336   -25641.146     5622.554 
   48600    301.63812   -25533.327    129.47413   -25662.801    2840.0771 
   48800    319.30052   -25501.663    137.05549   -25638.718   -676.41187 
   49000    297.59986   -25523.815    127.74077   -25651.556   -4425.6342 
   49200    311.12777   -25501.121    133.54744   -25634.669    270.47985 
   49400    279.27219   -25513.032    119.87386   -25632.906   -6973.4305 
   49600    283.29652   -25523.954    121.60125   -25645.555    480.08697 
   49800    305.21272   -25496.649    131.00849   -25627.658    6086.1511 
   50000    302.65871    -25517.63    129.91221   -25647.542   -2964.0347 
   50200    301.13338   -25516.359    129.25748   -25645.617   -6624.6351 
   50400     336.4025    -25488.56    144.39628   -25632.957   -1224.0645 
   50600    259.81231   -25514.593    111.52097   -25626.114    427.80785 
   50800    313.98133    -25517.49    134.77229   -25652.262     216.9364 
   51000    314.89112   -25508.884    135.16281   -25644.047   -2921.4604 
   51200    349.74407   -25480.213    150.12297   -25630.336    3018.5027 
   51400    277.67335   -25509.705    119.18758   -25628.892   -4624.0209 
   51600     286.1007   -25521.901    122.80491   -25644.706   -729.47245 
   51800     332.0585   -25490.814    142.53168   -25633.345   -1556.7788 
   52000     291.2803   -25509.049    125.02818   -25634.077    1208.6553 
   52200    293.52414   -25516.664    125.99132   -25642.656   -5712.1928 
   52400    284.08205   -25498.044    121.93843   -25619.982   -1070.8708 
   52600    314.31572   -25482.883    134.91582   -25617.799    7517.8526 
   52800    277.17655   -25513.678    118.97433   -25632.652    851.98677 
   53000    312.78514   -25505.264    134.25884   -25639.523   -4736.1914 
   53200    304.56345   -25515.377    130.72979   -25646.107   -4852.9932 
   53400    281.60615   -25520.351    120.87568   -25641.226   -707.66086 
   53600    327.82894   -25504.764    140.71619    -25645.48    4.0388783 
   53800    290.82533   -25520.844    124.83289   -25645.677   -1999.3079 
   54000    245.34014   -25534.386    105.30898   -25639.695   -5174.7703 
   54200    292.51931   -25508.264    125.56001   -25633.824    1002.1658 
   54400    291.59351   -25510.112    125.16262   -25635.274   -2002.9725 
   54600    291.57581   -25528.184    125.15502   -25653.339    2351.0085 
   54800    325.21816   -25493.841    139.59555   -25633.437   -2702.4625 
   55000    290.88896   -25518.288     124.8602   -25643.148   -4004.4262 
   55200    274.61867   -25527.252     117.8764   -25645.128    2190.3682 
   55400    308.42571   -25495.453    132.38762   -25627.841     6058.443 
   55600     286.5452   -25520.958     122.9957   -25643.953    -4255.499 
   55800    275.63658   -25512.889    118.31332   -25631.202    1363.4469 
   56000    334.47954   -25499.042    143.57088   -25642.613    5418.2595 
   56200    287.82644   -25528.467    123.54565   -25652.012    318.22566 
   56400    291.63391   -25503.704    125.17996   -25628.884    3516.1866 
   56600    332.73469    -25503.49    142.82192   -25646.312    6091.1863 
   56800    300.87599   -25524.813      129.147    -25653.96   -3764.9005 
   57000    328.65026   -25503.528    141.06873   -25644.597    3590.7091 
   57200    287.85673   -25524.582    123.55866    -25648.14    1097.8917 
   57400    288.09062   -25519.409    123.65905   -25643.068    1505.1696 
   57600    333.55437   -25485.342    143.17376   -25628.516   -508.17829 
   57800    278.16501   -25514.172    119.39862   -25633.571   -2435.4697 
   58000    282.48729   -25524.705     121.2539   -25645.959    4722.1013 
   58200    290.34788   -25537.232    124.62795    -25661.86    4085.8795 
   58400    320.40746   -25506.299    137.53062   -25643.829   -2688.2502 
   58600    302.42936   -25508.159    129.81376   -25637.973    4040.6057 
   58800    267.48944   -25534.218    114.81627   -25649.034    428.65241 
   59000    300.35206   -25504.402    128.92211   -25633.324    2499.3645 
   59200    313.36052   -25504.049    134.50582   -25638.555    3151.4934 
   59400    281.17571   -25530.048    120.69092   -25650.739    288.23361 
   59600    312.54328   -25504.909    134.15503   -25639.064    3994.1539 
   59800    283.94926   -25511.948    121.88143    -25633.83    4950.9896 
   60000    298.42958   -25515.718    128.09691   -25643.815   -1328.4119 
   60200    294.07201   -25494.694    126.22649   -25620.921    8462.0526 
   60400     295.3143   -25525.534    126.75972   -25652.294    1681.6756 
   60600    274.45314   -25524.446    117.80535   -25642.252    628.36061 
   60800     276.4957   -25504.842    118.68209   -25623.524    1120.4482 
   61000    292.80469   -25500.631     125.6825   -25626.314    -2336.641 
   61200    274.69203    -25515.93    117.90789   -25633.838    7227.9436 
   61400    276.11601   -25524.776    118.51911   -25643.295   -1229.6053 
   61600       291.75   -25497.696    125.22979   -25622.926   -697.00912 
   61800    324.82534   -25492.207    139.42694   -25631.634    3916.6942 
   62000    327.10262   -25510.683    140.40443   -25651.087   -3215.8799 
   62200    281.14565   -25514.221    120.67801   -25634.899   -3725.6889 
   62400    297.03336   -25521.937     127.4976   -25649.435   -7032.1325 
   62600    309.05909   -25507.006    132.65949   -25639.666   -3780.7106 
   62800    306.64188    -25503.91    131.62193   -25635.532    2939.6605 
   63000    286.38038   -25518.994    122.92495   -25641.919   -4090.3276 
   63200    292.51353    -25521.07    125.55753   -25646.628    2333.7769 
   63400    316.34157   -25515.247     135.7854   -25651.033   -1844.0002 
   63600    314.84497   -25504.883      135.143   -25640.026   -3310.4044 
   63800     301.4298   -25523.453    129.38472   -25652.838    6002.8687 
   64000    289.93076   -25525.076    124.44891   -25649.525   -8078.8071 
   64200    318.94686   -25498.257    136.90368   -25635.161    6545.6648 
   64400    278.83182   -25524.384    119.68484   -25644.069   -2959.2817 
   64600    268.88401   -25523.841    115.41487   -25639.256   -6627.5702 
   64800    290.65572   -25511.373    124.76009   -25636.133   -2676.1423 
   65000    311.00415   -25515.741    133.49438   -25649.236   -5460.3974 
   65200    300.53613   -25514.358    129.00112   -25643.359    3030.3304 
   65400    341.54616   -25492.678    146.60413   -25639.282   -4838.6722 
   65600     311.0421   -25519.371    133.51067   -25652.881   -2398.4836 
   65800    307.37553   -25514.555    131.93684   -25646.492    536.87948 
   66000    294.47835   -25533.449     126.4009    -25659.85   -1608.1936 
   66200    287.36007   -25510.789    123.34547   -25634.134    4195.1661 
   66400    322.82006   -25506.072     138.5662   -25644.638    6084.1784 
   66600    281.32198   -25526.483     120.7537   -25647.236   -881.62839 
   66800    317.14307   -25515.684    136.12943   -25651.813   -79.229315 
   67000    310.98345   -25508.851    133.48549   -25642.336   -4989.9455 
   67200    301.61236    -25515.51    129.46308   -25644.973    537.94581 
   67400    319.22005    -25486.84    137.02094   -25623.861   -2960.0549 
   67600    313.42361   -25503.027     134.5329    -25637.56    1651.9676 
   67800     321.1362   -25519.873    137.84343   -25657.716   -521.89307 
   68000    323.45708   -25500.147    138.83963   -25638.986   -454.77118 
   68200    311.63083   -25508.612    133.76337   -25642.376   -2837.7185 
   68400    284.59552   -25520.167    122.15883   -25642.326    -3445.656 
   68600    293.34061   -25522.764    125.91254   -25648.677   -12466.475 
   68800    295.51069   -25504.453    126.84402   -25631.297   -9018.0557 
   69000    253.69677   -25520.568    108.89595   -25629.464    2606.9927 
   69200    314.94475   -25513.917    135.18583   -25649.102    3438.0603 
   69400    312.50106   -25509.786    134.13691   -25643.923   -2568.9375 
   69600    293.73871   -25504.969    126.08342   -25631.053    1483.6132 
   69800    273.67788   -25513.409    117.47257   -25630.882    2663.3968 
   70000    310.01223   -25504.926    133.06861   -25637.995   -1726.3056 
   70200    347.25046   -25481.065    149.05262   -25630.117     1326.734 
   70400    307.65343   -25516.012    132.05613   -25648.068    6535.9627 
   70600    266.75228   -25523.543    114.49985   -25638.043   -4713.8122 
   70800     313.4675   -25500.121    134.55174   -25634.673   -4654.3292 
   71000    306.14168   -25508.995    131.40723   -25640.403       937.53 
   71200    317.93054    -25516.48    136.46744   -25652.947    2814.5441 
   71400    314.21365   -25502.219    134.87201   -25637.091    5617.4342 
   71600    287.46383   -25526.453    123.39001   -25649.843    2246.5764 
   71800    274.80934    -25518.69    117.95824   -25636.648   -7520.0202 
   72000    321.96167   -25498.834    138.19775   -25637.032   -4026.4957 
   72200    306.72979   -25507.113    131.65967   -25638.773    3696.3661 
   72400    277.42961    -25527.56    119.08296   -25646.643    291.53384 
   72600    321.92096   -25504.316    138.18027   -25642.496   -1226.8394 
   72800    316.30769   -25507.577    135.77085   -25643.348   -1349.6219 
   73000    289.13693   -25523.988    124.10817   -25648.096    4444.4322 
   73200    304.58362   -25505.635    130.73845   -25636.373    1003.9228 
   73400    334.66722   -25486.551    143.65143   -25630.202   -1935.2422 
   73600    288.92385   -25518.851     124.0167   -25642.868    2603.9022 
   73800    305.13687   -25505.057    130.97593   -25636.033    1677.7368 
   74000    274.65272    -25525.39    117.89101   -25643.281   -3630.1861 
   74200    317.05215   -25508.401     136.0904   -25644.491    2188.4991 
   74400    300.12014   -25501.356    128.82256   -25630.179   -8282.1684 
   74600    318.26335   -25514.487    136.61029   -25651.097   -1627.6499 
   74800    269.04548     -25524.9    115.48418   -25640.384     6803.918 
   75000    312.17198   -25500.867    133.99565   -25634.863   -330.66867 
   75200    281.26293   -25522.458    120.72836   -25643.187   -1488.4608 
   75400    312.97559   -25522.637    134.34059   -25656.978   -4473.4576 
   75600    293.45296   -25509.401    125.96076   -25635.362    1331.0423 
   75800    323.50357   -25488.979    138.85959   -25627.838    2684.8725 
   76000    300.82907   -25494.664    129.12686   -25623.791    5320.7935 
   76200    317.95439   -25505.949    136.47768   -25642.426   -5341.2876 
   76400     291.2576   -25527.707    125.01844   -25652.725    1256.1041 
   76600    302.70333   -25517.264    129.93136   -25647.195     1568.157 
   76800    318.89022   -25503.453    136.87937   -25640.333   -475.55605 
   77000    285.43656   -25519.824    122.51983   -25642.344     1470.151 
   77200    296.14123    -25508.32    127.11467   -25635.435    4015.2418 
   77400    320.53978   -25499.681    137.58742   -25637.268    960.86129 
   77600    315.80673   -25522.535    135.55582    -25658.09    -2874.279 
   77800    328.71445   -25502.281    141.09629   -25643.377    638.43707 
   78000    314.16501   -25500.768    134.85114   -25635.619   -117.51956 
   78200    272.66242   -25514.956     117.0367   -25631.993    1050.6404 
   78400    327.27252   -25480.903    140.47736    -25621.38    7167.8548 
   78600    294.36822   -25507.478    126.35363   -25633.832   -1027.5282 
   78800     298.6533   -25509.941    128.19294   -25638.134   -2210.9432 
   79000    299.81705   -25531.398    128.69247    -25660.09    372.66382 
   79200     304.3501   -25509.963    130.63822   -25640.601   -1510.7082 
   79400    282.93315   -25500.524    121.44528   -25621.969    2347.0177 
   79600    270.33812   -25527.189    116.03903   -25643.228    -2690.784 
   79800    305.54136   -25523.444    131.14955   -25654.593    2431.6175 
   80000    296.77056   -25522.407     127.3848   -25649.792    1715.6947 
   80200    268.97758     -25538.1    115.45503   -25653.555    208.36604 
   80400    294.21634   -25508.844    126.28844   -25635.133    457.52112 
   80600    290.89512   -25522.114    124.86285   -25646.977    3109.3626 
   80800    239.96593   -25540.771    103.00217   -25643.773   -1666.9862 
   81000    332.24112   -25506.835    142.61006   -25649.445    1706.4511 
   81200    290.79237   -25521.956    124.81874   -25646.775   -4736.9357 
   81400    291.94047   -25521.836    125.31155   -25647.148    5865.0959 
   81600    302.07492    -25508.64    129.66163   -25638.302   -4938.8168 
   81800    320.72418   -25515.327    137.66657   -25652.994    545.11296 
   82000    299.84263   -25526.388    128.70345   -25655.092    5267.1783 
   82200    318.01381   -25497.557    136.50318    -25634.06   -1929.8347 
   82400    283.90159   -25526.403    121.86097   -25648.264    -2709.469 
   82600    327.06007   -25512.724    140.38617    -25653.11   -8276.7874 
   82800    303.30607   -25494.928    130.19008   -25625.118    3607.3503 
   83000    238.11272   -25522.425    102.20671   -25624.632   -2376.2309 
   83200    270.98163   -25552.793    116.31525   -25669.109   -969.11842 
   83400    303.60804   -25523.217     130.3197   -25653.537   -2283.1401 
   83600     306.7211   -25502.061    131.65594   -25633.717    7989.3683 
   83800    306.57197   -25499.647    131.59192   -25631.239   -860.86119 
   84000    290.47182   -25516.652    124.68115   -25641.333    3696.1335 
   84200    279.35546   -25523.055     119.9096   -25642.965    1175.6985 
   84400    318.01275   -25492.653    136.50273   -25629.156    2119.5455 
   84600    282.53117   -25517.318    121.27273   -25638.591   -553.02358 
   84800    315.62874   -25519.109    135.47942   -25654.588   -4476.2099 
   85000     323.7415   -25500.088    138.96172   -25639.049    760.64489 
   85200    300.69063   -25505.485    129.06744   -25634.552   -2316.4754 
   85400    289.80858   -25510.441    124.39646   -25634.837    1469.0755 
   85600    262.86694    -25533.32    112.83212   -25646.152   -239.78172 
   85800    306.30689   -25503.203    131.47814   -25634.681   -11.033185 
   86000    290.82233   -25502.205     124.8316   -25627.037   -10656.025 
   86200    314.46783   -25517.177    134.98112   -25652.159    -2606.833 
   86400    288.26496   -25527.663    123.73389   -25651.397    2457.1071 
   86600    333.12287   -25496.757    142.98854   -25639.745    5806.6736 
   86800     291.9301   -25513.119     125.3071   -25638.426    4253.8001 
   87000    327.10642   -25509.983    140.40606   -25650.389   -4349.9366 
   87200    302.45062   -25529.593    129.82289   -25659.416    6899.5646 
   87400    305.57155   -25514.642    131.16251   -25645.805    1761.5038 
   87600    290.26447   -25498.534    124.59215   -25623.126   -2940.8676 
   87800     304.9878   -25518.309    130.91194   -25649.221   -943.28474 
   88000    289.91673   -25527.445    124.44288   -25651.888    1097.6652 
   88200    300.80779   -25509.568    129.11773   -25638.685    9170.3594 
   88400    278.51821   -25514.977    119.55022   -25634.527   -2893.5291 
   88600    306.98462   -25528.528    131.76905   -25660.298   -360.31717 
   88800    269.18755   -25539.725    115.54516    -25655.27   -6218.5058 
   89000    316.27622   -25503.514    135.75735   -25639.271    1281.1503 
   89200    280.14273   -25513.372    120.24753   -25633.619    1960.9722 
   89400    291.42526    -25523.85     125.0904   -25648.941   -1372.3088 
   89600    281.30294   -25518.431    120.74553   -25639.176    3254.2459 
   89800    308.00868   -25513.615    132.20861   -25645.824   -3136.9629 
   90000    311.25207   -25502.922     133.6008   -25636.522     2854.407 
   90200    293.42546   -25523.936    125.94896   -25649.885    -3670.954 
   90400    302.78819   -25508.713    129.96779    -25638.68    3110.5078 
   90600    317.45226   -25497.643    136.26214   -25633.905   -299.58975 
   90800    291.19673   -25519.284    124.99231   -25644.277   -2300.9071 
   91000    317.33992   -25517.392    136.21392   -25653.606    438.46741 
   91200    323.32523   -25504.582    138.78304   -25643.365   -3660.0754 
   91400    328.55698   -25478.103     141.0287   -25619.132    398.66616 
   91600    291.73777   -25512.693    125.22454   -25637.917   -649.43486 
   91800    315.54528   -25504.525     135.4436   -25639.969    1813.6472 
   92000    293.12199   -25519.777     125.8187   -25645.596    7097.3994 
   92200    299.27369   -25512.896    128.45923   -25641.355   -995.43674 
   92400     338.7365   -25489.581    145.39812   -25634.979   -1586.3291 
   92600    310.29537   -25509.945    133.19015   -25643.135    2890.2922 
   92800    309.40146   -25506.044    132.80644    -25638.85   -2879.3518 
   93000    322.89457   -25493.135    138.59818   -25631.733    4374.6167 
   93200    292.14324   -25512.217    125.39858   -25637.616   -6861.1734 
   93400    305.14271    -25498.19    130.97843   -25629.168   -3720.7322 
   93600    306.22077   -25525.448    131.44118   -25656.889   -44.063397 
   93800    318.39027   -25509.658    136.66477   -25646.322    1372.9713 
   94000    298.80284   -25508.333    128.25713    -25636.59   -2100.7664 
   94200    258.02185   -25526.658    110.75243   -25637.411    3392.0846 
   94400    308.61861   -25525.464    132.47042   -25657.935     3499.705 
   94600     302.3133   -25502.864    129.76395   -25632.628     2242.111 
   94800    302.42999   -25515.159    129.81404   -25644.973    1104.5679 
   95000    315.11456   -25520.962    135.25872    -25656.22    4268.9686 
   95200    332.00663   -25504.111    142.50941   -25646.621    632.69137 
   95400    306.56425    -25518.92    131.58861   -25650.509    1088.3421 
   95600    302.61316   -25495.885    129.89266   -25625.777    5739.9125 
   95800    325.97427   -25484.806     139.9201   -25624.726    607.13651 
   96000    312.76847   -25515.587    134.25169   -25649.839     3277.321 
   96200    287.04019   -25520.115    123.20817   -25643.323   -4689.7972 
   96400    358.72981   -25482.964    153.97998   -25636.944    91.697979 
   96600    309.76687   -25513.061    132.96329   -25646.025   -4873.7162 
   96800    303.50331   -25512.973    130.27474   -25643.248    1513.2619 
   97000    321.73155   -25501.764    138.09897   -25639.863     779.6476 
   97200    298.87538   -25525.955    128.28827   -25654.243     -2906.01 
   97400    316.67684   -25512.643     135.9293   -25648.572   -2249.4362 
   97600    326.24204   -25508.422    140.03504   -25648.457   -1350.1731 
   97800    290.61746    -25507.91    124.74366   -25632.654   -2655.5914 
   98000    336.87206   -25500.553    144.59784   -25645.151   -4703.8045 
   98200    293.61473   -25526.161     126.0302   -25652.191    3536.8103 
   98400    338.74241   -25506.832    145.40066   -25652.232    8781.8892 
   98600    276.54525    -25504.16    118.70336   -25622.864    4590.7262 
   98800    286.37805   -25524.188    122.92395   -25647.112     3380.983 
   99000     310.4271   -25508.888    133.24669   -25642.134    5580.3545 
   99200    306.85569   -25509.218    131.71371   -25640.932    -7071.387 
   99400    306.12607   -25509.068    131.40053   -25640.468   -2091.9044 
   99600    277.22213    -25530.65     118.9939   -25649.644   -669.64399 
   99800    311.31025    -25508.05    133.62577   -25641.676   -3047.3031 
  100000    273.55282   -25505.377    117.41889   -25622.796      4430.81 
  100200    315.89092   -25485.816    135.59196   -25621.408   -4437.6789 
  100400    289.37681   -25507.849    124.21113    -25632.06   -112.78635 
  100600    283.08642   -25519.614    121.51107   -25641.125    4328.8871 
  100800    285.71712   -25521.189    122.64026   -25643.829   -3014.3266 
  101000    305.20579   -25495.618    131.00551   -25626.624    3784.4662 
  101200    285.00993   -25522.602    122.33671   -25644.939    4888.7753 
  101400    293.60832   -25506.839    126.02745   -25632.867    3907.7683 
  101600    298.62911   -25510.416    128.18256   -25638.599   -5127.6459 
  101800    306.34753   -25511.307    131.49559   -25642.803   -3337.6746 
  102000    314.67512    -25507.17    135.07009    -25642.24    12659.145 
  102200    265.94823   -25526.419    114.15473   -25640.573   -4159.9607 
  102400     300.6153    -25507.93     129.0351   -25636.965     1269.238 
  102600    331.18825   -25502.974    142.15814   -25645.132   -2756.7827 
  102800    282.03059   -25522.933    121.05786   -25643.991   -4983.2695 
  103000    300.32198    -25512.85     128.9092   -25641.759     1029.569 
  103200    297.45174    -25510.45    127.67719   -25638.127   -5004.8773 
  103400     275.9637   -25535.114    118.45373   -25653.568     2691.326 
  103600     315.8107   -25506.427    135.55752   -25641.985   -4345.1869 
  103800    305.93732   -25520.341    131.31951    -25651.66    2707.2992 
  104000    316.95831   -25494.162    136.05012   -25630.212   -4379.7648 
  104200    311.74752   -25498.034    133.81346   -25631.847    5783.6425 
  104400    282.63889    -25523.56    121.31897   -25644.879   -2400.3275 
  104600    276.16638   -25519.397    118.54073   -25637.938   -1700.7161 
  104800    340.68603   -25498.796    146.23493   -25645.031    6584.4802 
  105000    288.85819   -25529.346    123.98852   -25653.335   -2461.4954 
  105200    289.64853   -25519.377    124.32776   -25643.705   -3546.9396 
  105400     262.8879   -25509.108    112.84112   -25621.949   -1214.8835 
  105600    289.82065   -25518.728    124.40164   -25643.129   -3092.6043 
  105800    303.63002   -25526.543    130.32913   -25656.872   -3302.1505 
  106000    306.06504   -25506.857    131.37433   -25638.231    2225.2248 
  106200    289.74602   -25512.285    124.36961   -25636.654   -1186.8091 
  106400    266.50431   -25531.118    114.39342   -25645.512    3986.9539 
  106600     308.8689   -25507.671    132.57785   -25640.249     4063.621 
  106800    269.69767   -25520.668    115.76412   -25636.432   -162.30599 
  107000    270.96669     -25540.4    116.30883   -25656.708    3687.0558 
  107200    309.23135   -25513.427    132.73343   -25646.161    6472.7009 
  107400    349.93127   -25499.082    150.20333   -25649.285   -6005.5123 
  107600    285.51185   -25516.936    122.55215   -25639.488    2380.0841 
  107800    294.85106   -25522.221    126.56088   -25648.782    4966.5741 
  108000    341.00669    -25493.41    146.37257   -25639.782   -4194.8819 
  108200    277.83554   -25517.173     119.2572   -25636.431    6088.4819 
  108400    326.74147   -25495.938    140.24941   -25636.188    5465.1759 
  108600    326.15564   -25499.999    139.99795   -25639.997    2433.8365 
  108800    261.34684    -25523.89    112.17964   -25636.069   -518.03234 
  109000    305.82183   -25499.945    131.26994   -25631.215    3847.0756 
  109200    298.24043   -25494.326    128.01572   -25622.342   -8226.5336 
  109400    291.05942   -25522.093    124.93337   -25647.026    2849.0579 
  109600    312.77829   -25504.708    134.25591   -25638.964    5524.6838 
  109800    303.80955    -25501.24    130.40619   -25631.646   -1080.8149 
  110000    288.73265   -25509.266    123.93464     -25633.2    2868.5212 
  110200    306.38202   -25508.781    131.51039   -25640.291   -157.29247 
  110400    270.38106   -25533.074    116.05746   -25649.132   -1731.4923 
  110600    322.70455   -25505.545    138.51662   -25644.061     6776.971 
  110800    301.94768   -25507.734    129.60701   -25637.341   -680.74908 
  111000    305.83234   -25522.901    131.27445   -25654.175   -3770.4539 
  111200    299.12258   -25528.991    128.39437   -25657.385    3711.6163 
  111400    317.95201   -25499.106    136.47666   -25635.583   -8398.2859 
  111600    282.83088   -25522.458    121.40138   -25643.859    8613.1259 
  111800    262.44081   -25523.168    112.64921   -25635.817   -2465.3738 
  112000    296.07299   -25505.734    127.08538   -25632.819   -5014.7575 
  112200    314.22535   -25508.986    134.87703   -25643.863    2117.7491 
  112400    277.07947    -25538.06    118.93266   -25656.993    4180.9607 
  112600    252.02815   -25544.733    108.17972   -25652.913    1067.3061 
  112800    320.87154   -25508.482    137.72982   -25646.212    1209.3624 
  113000    299.37348   -25517.733    128.50207   -25646.235   -43.677673 
  113200     250.5874   -25534.395     107.5613   -25641.957    957.81463 
  113400    295.46352   -25496.443    126.82377   -25623.267   -4711.7997 
  113600    298.33857    -25509.85    128.05785   -25637.908   -2096.0764 
  113800     267.8876   -25531.978    114.98718   -25646.965   -2474.0107 
  114000    318.00344   -25513.051    136.49873   -25649.549   -652.81183 
  114200    282.55054    -25511.38    121.28104   -25632.661    3810.1874 
  114400    315.23617    -25492.86    135.31092   -25628.171    3483.3357 
  114600    330.83617   -25507.195    142.00701   -25649.202    6409.9161 
  114800    321.23293   -25519.457    137.88495   -25657.342    4771.7777 
  115000    299.41862   -25514.394    128.52144   -25642.915    -4114.754 
  115200    310.94314   -25490.363    133.46819   -25623.832    1520.3224 
  115400    276.09238   -25518.217    118.50897   -25636.726   -2970.4778 
  115600    295.16042   -25513.454    126.69367   -25640.148    2669.4067 
  115800    330.27525   -25483.177    141.76624   -25624.944    985.68926 
  116000    287.35095   -25503.541    123.34156   -25626.883    -5017.755 
  116200    277.54061   -25517.065     119.1306   -25636.196   -3503.9754 
  116400    321.99731   -25499.541    138.21305   -25637.754    3535.6043 
  116600     300.1414   -25500.803    128.83169   -25629.635    2868.6889 
  116800    288.19757   -25533.856    123.70496   -25657.561   -6133.8636 
  117000    308.89302   -25507.818    132.58821   -25640.406    1036.6557 
  117200    303.31257   -25496.874    130.19287   -25627.067    3455.6407 
  117400    264.26887   -25528.692    113.43388   -25642.126   -5865.9425 
  117600    302.21277   -25506.743     129.7208   -25636.464   -533.38091 
  117800    325.10941   -25504.135    139.54887   -25643.684   -7524.5534 
  118000    293.62172   -25508.803     126.0332   -25634.837   -2571.6126 
  118200     359.0776   -25488.845    154.12927   -25642.974    307.55413 
  118400    279.04865   -25510.152    119.77791   -25629.929   -4889.4582 
  118600      296.339   -25510.903    127.19956   -25638.103    2892.9949 
  118800    297.61895   -25525.723    127.74896   -25653.472   -5703.5797 
  119000    313.57759   -25508.798    134.59899   -25643.397   -484.11468 
  119200    311.17971   -25505.559    133.56974   -25639.129    468.43811 
  119400    286.76665   -25536.307    123.09076   -25659.397   -3867.2189 
  119600    304.16115   -25508.696    130.55711   -25639.254    4776.4811 
  119800    302.64194   -25513.777    129.90501   -25643.683   -1299.8114 
  120000    298.58096   -25520.424    128.16189   -25648.586    1467.7628 
  120200    330.91461   -25507.824    142.04068   -25649.865    90.132394 
  120400    312.50064   -25510.925    134.13673   -25645.061   -1700.9437 
  120600    329.80596   -25481.648    141.56481   -25623.213    2564.5155 
  120800    304.13098    -25517.67    130.54416   -25648.214   -1118.1564 
  121000    328.54286   -25517.454    141.02264   -25658.477    3695.9035 
  121200    309.50519   -25502.069    132.85097    -25634.92    3853.5424 
  121400    295.44965   -25507.636    126.81782   -25634.454   -4214.8902 
  121600    335.30633   -25515.377    143.92577   -25659.303    5191.5892 
  121800     300.4777   -25523.388    128.97604   -25652.364    2668.0538 
  122000    329.50226   -25494.926    141.43445    -25636.36   -5774.9491 
  122200     304.7145   -25516.641    130.79463   -25647.436    767.36243 
  122400    285.52704   -25516.464    122.55867   -25639.023    7962.8835 
  122600    315.43995   -25491.567    135.39839   -25626.965   -8174.3729 
  122800    320.51836   -25503.713    137.57823   -25641.291    1128.1513 
  123000    292.68492   -25516.527    125.63109   -25642.158     1443.976 
  123200    296.40261   -25519.402    127.22686   -25646.628    1178.0379 
  123400     275.2562   -25527.314    118.15005   -25645.464    2554.4007 
  123600    320.20929   -25499.239    137.44556   -25636.684    1418.7802 
  123800     274.9709   -25524.032    118.02759   -25642.059     2711.274 
  124000    286.44531   -25511.021    122.95282   -25633.973   -2399.9446 
  124200    340.74698   -25480.666    146.26109   -25626.927    3793.7835 
  124400    312.90115   -25513.549    134.30864   -25647.858    6646.8052 
  124600    310.46046   -25509.278    133.26101   -25642.539   -8488.0254 
  124800    303.10756   -25493.863    130.10487   -25623.968   -3498.6799 
  125000     293.8302   -25520.285    126.12269   -25646.408    2673.0274 
  125200    313.88411   -25505.594    134.73056   -25640.325    3419.6915 
  125400    301.83436   -25502.085    129.55837   -25631.643   -1251.1158 
  125600    243.96887   -25526.067    104.72038   -25630.787   -2935.7067 
  125800    292.44262   -25521.913    125.52709    -25647.44    2611.8903 
  126000    304.80346   -25509.804    130.83282   -25640.637   -4116.3739 
  126200    308.72803   -25511.645    132.51738   -25644.162    -1973.666 
  126400    287.51021   -25530.269    123.40992   -25653.679     5958.698 
  126600    303.23633   -25502.962    130.16014   -25633.122   -6509.6932 
  126800    307.74757    -25503.49    132.09654   -25635.586   -2195.9493 
  127000    284.09452   -25534.557    121.94378   -25656.501   -4460.5391 
  127200    289.99553   -25513.527    124.47671   -25638.004    1154.5578 
  127400    313.57698   -25512.032    134.59873   -25646.631   -752.23401 
  127600    280.07713   -25513.157    120.21937   -25633.377   -5347.9736 
  127800    302.86403   -25489.904    130.00034   -25619.905   -1292.6361 
  128000    280.37313   -25517.958    120.34642   -25638.305    3361.6416 
  128200    310.53486   -25512.264    133.29294   -25645.557    9170.9779 
  128400    304.09563   -25516.964    130.52899   -25647.493   -1868.7001 
  128600    278.80242   -25538.347    119.67222    -25658.02    596.22954 
  128800    324.41264    -25511.82     139.2498    -25651.07    3618.8756 
  129000    270.21556   -25509.379    115.98642   -25625.365    289.80595 
  129200    302.96595    -25495.67    130.04409   -25625.714   -3919.5689 
  129400    285.05931   -25527.577     122.3579   -25649.935    1104.9648 
  129600    315.96469   -25508.686    135.62363    -25644.31    833.99012 
  129800    290.29488   -25524.609     124.6052   -25649.214    1270.8025 
  130000     290.6528   -25519.099    124.75883   -25643.858    3690.8036 
  130200    289.99061    -25505.51     124.4746   -25629.985   -2113.9153 
  130400    291.42944   -25507.103    125.09219   -25632.195    1730.7583 
  130600    308.46947   -25498.483     132.4064   -25630.889   -322.58909 
  130800    308.81616    -25522.02    132.55521   -25654.576    5424.3708 
  131000    292.31457   -25525.427    125.47213   -25650.899     4930.755 
  131200     340.3461   -25501.335    146.08902   -25647.424    1598.4059 
  131400    294.25378    -25514.65    126.30451   -25640.954   -3199.0968 
  131600    303.70312   -25519.403    130.36051   -25649.763    1572.8073 
  131800    331.23088   -25502.291    142.17643   -25644.467    2168.8422 
  132000    283.72178    -25504.09    121.78379   -25625.874   -3011.9907 
  132200    281.93548   -25525.246    121.01704   -25646.263   -8082.1932 
  132400    315.49293   -25505.765    135.42113   -25641.186   -4120.2909 
  132600    299.37302   -25490.778    128.50187    -25619.28    1318.1703 
  132800     341.2914   -25502.433    146.49477   -25648.928    1155.2042 
  133000    286.78641    -25517.75    123.09924   -25640.849   -2831.8831 
  133200    333.30131    -25492.94    143.06514   -25636.005   -269.43149 
  133400    287.71155   -25509.339    123.49634   -25632.836   -1793.4959 
  133600      284.441   -25516.063     122.0925   -25638.156    1060.4206 
  133800    312.04505   -25498.183    133.94117   -25632.124    1309.1485 
  134000     285.8095   -25510.084    122.67991   -25632.764   -2568.9479 
  134200    319.15571   -25511.042    136.99333   -25648.035    2308.1529 
  134400    331.44669   -25488.203    142.26907   -25630.472     4286.239 
  134600    281.96934   -25513.703    121.03157   -25634.734   -8403.7982 
  134800    298.76023   -25513.073    128.23884   -25641.312   -3878.4121 
  135000     297.2394   -25517.735    127.58605   -25645.321   -5705.0965 
  135200    321.32084   -25510.109    137.92268   -25648.032    4810.8787 
  135400    317.07514   -25508.073    136.10027   -25644.173   -845.22827 
  135600     283.4666   -25523.448    121.67425   -25645.122   -1493.0344 
  135800    306.70213   -25512.366    131.64779   -25644.014    512.10167 
  136000    306.71825   -25491.687    131.65471   -25623.342   -908.73386 
  136200    322.13537   -25507.286    138.27231   -25645.558     2759.531 
  136400    291.08392   -25521.293    124.94388   -25646.237    5616.0986 
  136600    323.96838   -25493.816     139.0591   -25632.875   -8469.7772 
  136800    292.02162    -25509.03    125.34638   -25634.376    2195.1525 
  137000    293.67447   -25517.856    126.05584   -25643.911   -3174.5185 
  137200    323.97388   -25495.694    139.06146   -25634.755   -615.76026 
  137400    295.36652   -25512.431    126.78214   -25639.213    2543.1635 
  137600     277.1308    -25515.53     118.9547   -25634.485    3437.7898 
  137800    343.57943     -25489.1    147.47688   -25636.577    5443.3585 
  138000    298.82048   -25521.961     128.2647   -25650.225   -5067.4625 
  138200     297.9845   -25520.238    127.90587   -25648.144    5317.1385 
  138400    308.59536   -25498.198    132.46044   -25630.659   -12456.985 
  138600    302.57001   -25511.008    129.87414   -25640.882   -907.56839 
  138800    295.51261   -25508.586    126.84484   -25635.431    2043.2154 
  139000    289.75293   -25523.271    124.37257   -25647.644    2275.5046 
  139200     270.1598   -25528.189    115.96249   -25644.151    2636.2928 
  139400    320.97599   -25497.711    137.77466   -25635.486   -1083.4099 
  139600    289.52502   -25512.732    124.27475   -25637.007   -3128.6834 
  139800    303.28007   -25525.459    130.17892   -25655.638   -700.46221 
  140000    285.88183   -25508.171    122.71096   -25630.882     2123.827 
  140200    322.29158    -25503.37    138.33936    -25641.71   -75.674705 
  140400    276.09674   -25525.121    118.51084   -25643.632    8967.2397 
  140600    294.25291   -25518.879    126.30413   -25645.183    -2232.777 
  140800    309.36732   -25490.152    132.79179   -25622.944   -1918.4717 
  141000    304.94908   -25510.842    130.89532   -25641.737   -287.35198 
  141200    303.96993   -25519.594    130.47503   -25650.069    6807.8217 
  141400     290.6297   -25509.915    124.74892   -25634.664   -7456.3137 
  141600    304.55776   -25517.348    130.72735   -25648.075     2576.998 
  141800    327.23932   -25513.312    140.46311   -25653.775   -8201.9604 
  142000     319.0218   -25500.233    136.93585   -25637.169     2306.864 
  142200    278.29593   -25534.721    119.45481   -25654.176    1176.1706 
  142400    293.26631   -25518.827    125.88065   -25644.707   -971.37307 
  142600     320.1274   -25508.389    137.41041   -25645.799    -10603.16 
  142800    273.20473   -25537.073    117.26948   -25654.342    -1473.218 
  143000    330.76964   -25500.239    141.97845   -25642.217    2689.4324 
  143200    251.11456   -25525.429    107.78757   -25633.216   -3399.4272 
  143400     328.6925   -25499.717    141.08687   -25640.804    3767.5518 
  143600    317.85694   -25502.202    136.43585   -25638.637    2333.7384 
  143800    329.42568   -25515.337    141.40157   -25656.739   -2521.0693 
  144000    291.98704   -25517.274    125.33154   -25642.606    1701.5247 
  144200    323.40384   -25507.337    138.81678   -25646.154    176.09329 
  144400    298.65524   -25509.997    128.19377    -25638.19   -1981.4822 
  144600    306.75114   -25513.281    131.66883    -25644.95   -1015.8954 
  144800    315.44535    -25511.66     135.4007   -25647.061   -4077.5886 
  145000    279.70198   -25519.476    120.05834   -25639.534   -4026.1883 
  145200    317.45955   -25513.983    136.26527   -25650.248     982.2775 
  145400    308.07311   -25508.045    132.23627   -25640.281    1683.3359 
  145600    312.14284   -25489.134    133.98315   -25623.117   -1744.7825 
  145800    287.44167   -25522.677     123.3805   -25646.057    1618.2442 
  146000    322.76087   -25510.629    138.54079    -25649.17   -4790.5771 
  146200    302.26174   -25531.635    129.74181   -25661.377    2530.2109 
  146400    295.99837   -25507.123    127.05335   -25634.177   -2272.6229 
  146600     291.4569   -25510.425    125.10398   -25635.529   -1868.2654 
  146800    277.77958   -25521.388    119.23318   -25640.621   -13741.105 
  147000    341.47494   -25487.272    146.57356   -25633.845   -1348.5724 
  147200    288.03783   -25518.508    123.63639   -25642.145    303.84666 
  147400     286.3823   -25520.552    122.92578   -25643.478    5754.7787 
  147600     296.0395   -25492.452      127.071   -25619.523    5702.7195 
  147800    313.06692   -25485.629     134.3798   -25620.009    1603.2651 
  148000    289.30182   -25519.248    124.17894   -25643.427   -3354.0152 
  148200    285.82833   -25513.408    122.68799   -25636.096    3131.6989 
  148400    324.81269   -25501.204    139.42151   -25640.626   -4484.6402 
  148600    299.38609   -25519.606    128.50748   -25648.113     6842.958 
  148800    314.44623   -25498.303    134.97184   -25633.275    3987.6753 
  149000    311.71724   -25489.387    133.80046   -25623.187    3809.9626 
  149200    286.78031   -25520.096    123.09662   -25643.193    4922.6745 
  149400    296.40929   -25511.878    127.22973   -25639.107   -4214.4881 
  149600    332.20859   -25489.724     142.5961    -25632.32   -709.86484 
  149800    276.52167   -25513.799    118.69324   -25632.492   -5181.7821 
  150000    319.73946   -25508.452    137.24389   -25645.696   -4818.4551 
  150200    289.16671    -25530.95    124.12095   -25655.071   -8300.2707 
  150400    318.58929   -25502.208     136.7502   -25638.958    3729.1212 
  150600      317.882   -25511.465     136.4466   -25647.911    2037.8009 
  150800    290.14087   -25534.799    124.53909   -25659.338    3443.2126 
  151000    284.04683   -25522.848    121.92331   -25644.771   -1026.9176 
  151200    294.43309   -25505.301    126.38147   -25631.682    -3182.926 
  151400    307.85409   -25494.619    132.14226   -25626.762    1504.9723 
  151600    293.17308    -25527.62    125.84063   -25653.461    4601.5405 
  151800    314.53269   -25507.868    135.00896   -25642.876   -3327.2242 
  152000    294.01247   -25512.348    126.20093   -25638.549    3487.4398 
  152200    295.25406   -25517.392    126.73386   -25644.126    2978.7032 
  152400    314.34533   -25484.583    134.92854   -25619.511   -84.016306 
  152600    295.25496   -25504.789    126.73425   -25631.523   -2082.2322 
  152800    298.51836   -25519.161    128.13502   -25647.296    88.617002 
  153000    271.04669   -25536.738    116.34317   -25653.082   -3851.4259 
  153200     325.6852   -25508.458    139.79602   -25648.254   -3875.8993 
  153400    288.08025   -25520.112     123.6546   -25643.766   -507.91141 
  153600    272.78185   -25525.519    117.08797   -25642.607   -3885.3555 
  153800    299.70177   -25500.986    128.64298   -25629.629    5874.2635 
  154000    315.57853   -25523.002    135.45787    -25658.46   -1850.5313 
  154200    294.65494   -25532.205     126.4767   -25658.681   -939.70073 
  154400    320.89686   -25512.831    137.74069   -25650.572    3535.6438 
  154600    269.96964   -25525.402    115.88086   -25641.283   -9466.8739 
  154800    309.60339   -25489.587    132.89312    -25622.48    181.43278 
  155000    295.13864   -25511.282    126.68432   -25637.966    5238.9883 
  155200     324.6096   -25505.191    139.33434   -25644.526    -3884.277 
  155400    307.20664   -25519.663    131.86435   -25651.527    1864.3031 
  155600    274.14745   -25528.301    117.67413   -25645.975   -4099.5289 
  155800    305.22871   -25497.235    131.01535    -25628.25   -5024.9443 
  156000    295.66098   -25510.068    126.90853   -25636.977    3492.3143 
  156200    283.89128   -25529.652    121.85654   -25651.508    175.35968 
  156400     343.3369   -25492.501    147.37278   -25639.873   -5885.6251 
  156600     287.8858   -25513.726    123.57114   -25637.297    5253.2422 
  156800    265.88869   -25517.492    114.12917   -25631.621    1479.5795 
  157000    328.71215   -25494.566     141.0953   -25635.661   -476.24924 
  157200    279.15987   -25509.468    119.82565   -25629.294   -606.01546 
  157400    293.39383   -25501.351    125.93538   -25627.287    699.24251 
  157600    285.48672   -25534.156    122.54136   -25656.698   -350.22485 
  157800    305.22652   -25510.486    131.01441   -25641.501   -3316.4086 
  158000    313.11143   -25501.355     134.3989   -25635.754   -32.135603 
  158200    307.60122   -25522.636    132.03371    -25654.67    4486.3485 
  158400    284.81185   -25522.143    122.25168   -25644.394    1947.3018 
  158600    318.44649   -25502.766     136.6889   -25639.455    8.3551894 
  158800    294.65479   -25520.015    126.47663   -25646.491    943.94541 
  159000    305.35128   -25515.247    131.06796   -25646.315   -3.6344984 
  159200    297.77404   -25507.498    127.81553   -25635.314    3200.7516 
  159400    272.77259   -25519.426    117.08399   -25636.509    3464.5549 
  159600    288.59635    -25515.86    123.87613   -25639.736    5876.6337 
  159800    306.98481   -25503.319    131.76913   -25635.088   -3243.9428 
  160000     350.6981   -25490.721    150.53248   -25641.253   -1274.3328 
  160200     280.8427   -25520.941    120.54798   -25641.489   -3332.9764 
  160400    294.60788   -25517.486     126.4565   -25643.942   -16.173109 
  160600    294.99409    -25495.18    126.62227   -25621.802     106.7185 
  160800    321.61612   -25517.368    138.04943   -25655.417    2646.7462 
  161000    272.57836   -25515.069    117.00062    -25632.07    3964.4462 
  161200    275.38293   -25514.807    118.20445   -25633.011   -1934.3283 
  161400    296.26661   -25512.011    127.16849    -25639.18   -6257.4032 
  161600    348.52026   -25499.886    149.59767   -25649.483   -3296.3867 
  161800    283.57131    -25529.22     121.7192   -25650.939   -4041.5864 
  162000    301.91308    -25513.56    129.59216   -25643.152    843.47962 
  162200    309.40981   -25504.608    132.81003   -25637.418   -7804.1552 
  162400    286.64077   -25512.381    123.03672   -25635.418    8241.8408 
  162600    261.60529   -25519.945    112.29058   -25632.235    3695.6139 
  162800    309.14929   -25519.113    132.69821   -25651.811   -40.415737 
  163000    314.08714     -25495.6    134.81771   -25630.417    11258.209 
  163200    290.23319   -25519.767    124.57872   -25644.345   -4839.6678 
  163400    297.89714   -25514.901    127.86837    -25642.77   -5599.9043 
  163600    335.26309   -25491.099     143.9072   -25635.007    6852.4213 
  163800     278.5158   -25516.725    119.54919   -25636.274   -53.616083 
  164000    315.71373   -25514.804     135.5159    -25650.32     1830.446 
  164200     278.0516   -25506.585    119.34994   -25625.935   -755.11007 
  164400    335.31329   -25494.596    143.92875   -25638.525    792.35785 
  164600    309.92949   -25511.147     133.0331    -25644.18   -1269.0308 
  164800    300.24682   -25513.057    128.87694   -25641.934   -3526.2984 
  165000     313.5008   -25487.642    134.56603   -25622.208    3015.4281 
  165200    298.65322   -25518.004    128.19291   -25646.197    2086.5962 
  165400    294.48455   -25519.206    126.40356    -25645.61   -7835.2056 
  165600    312.68429   -25496.156    134.21556   -25630.372    3834.8448 
  165800    290.90951   -25506.718    124.86902   -25631.587   -2407.1137 
  166000     267.6148   -25517.921    114.87008   -25632.791   -3559.4821 
  166200    359.96048   -25492.224    154.50823   -25646.732   -1678.7053 
  166400    293.93311   -25511.802    126.16686   -25637.969   -470.92242 
  166600     292.0971   -25522.608    125.37878   -25647.986    6760.8961 
  166800    308.16682   -25500.199    132.27649   -25632.476   -7659.7002 
  167000    316.13142   -25513.772    135.69519   -25649.468   -708.22148 
  167200    293.76263   -25521.106    126.09369     -25647.2    5297.6087 
  167400    321.12036   -25499.804    137.83662   -25637.641   -1444.5491 
  167600    278.23194    -25508.82    119.42735   -25628.248   -1481.3612 
  167800    285.03555   -25529.608     122.3477   -25651.955   -1334.6299 
  168000    308.00047   -25497.134    132.20509   -25629.339   -1874.3449 
  168200    286.20823   -25511.211    122.85106   -25634.062   -336.84941 
  168400    293.67348   -25529.245    126.05542   -25655.301    2989.4211 
  168600    308.29442   -25501.809    132.33126    -25634.14   -1521.9321 
  168800      296.425   -25508.313    127.23647   -25635.549    4364.4618 
  169000    279.84536   -25527.976    120.11988   -25648.096    1217.7473 
  169200    328.59385   -25512.528    141.04452   -25653.572    280.27152 
  169400    300.19064   -25513.054    128.85282   -25641.907   -1415.9762 
  169600    271.09542   -25525.714    116.36409   -25642.078   -628.13626 
  169800    323.02951   -25512.471     138.6561   -25651.127    5413.1399 
  170000    298.29553   -25507.072    128.03937   -25635.111    3632.7723 
  170200    264.22359   -25533.111    113.41445   -25646.526   -1167.3171 
  170400    317.40567   -25500.299    136.24215   -25636.542   -497.63621 
  170600    317.20434   -25503.121    136.15573   -25639.277    6687.3081 
  170800    313.92603   -25521.635    134.74855   -25656.383   -1489.4668 
  171000    342.46711   -25495.049    146.99943   -25642.049   -1455.2417 
  171200    311.15878   -25493.949    133.56075    -25627.51    1719.8381 
  171400    284.17784    -25513.07    121.97954   -25635.049    1148.1183 
  171600    330.82849   -25508.441    142.00371   -25650.444   -1411.4624 
  171800    282.09903   -25533.937    121.08724   -25655.024   -4860.6129 
  172000    305.04256   -25512.045    130.93545    -25642.98    5305.3465 
  172200    321.93275   -25511.311    138.18534   -25649.497   -2867.2378 
  172400    277.47924   -25524.844    119.10426   -25643.948    4538.7717 
  172600    297.06044   -25494.715    127.50923   -25622.224    635.19423 
  172800     296.9533   -25509.571    127.46324   -25637.034   -1299.1306 
  173000    276.96746    -25537.98    118.88459   -25656.865    3441.5259 
  173200    319.58981   -25505.773    137.17966   -25642.953   -974.19967 
  173400    309.56029   -25491.898    132.87462   -25624.772    2603.9655 
  173600    287.67029   -25516.673    123.47863   -25640.152   -1806.2937 
  173800    295.16634   -25519.113    126.69621   -25645.809     2540.772 
  174000    317.54684   -25492.583    136.30274   -25628.886    -6373.686 
  174200    292.82277   -25520.105    125.69026   -25645.795    238.76009 
  174400    306.77227   -25512.659     131.6779   -25644.337    687.62237 
  174600    320.29145   -25492.493    137.48083   -25629.973   -3353.7912 
  174800    281.01905   -25514.195    120.62368   -25634.819    1478.3584 
  175000    314.32337   -25506.048    134.91911   -25640.967   -150.10855 
  175200    268.09636   -25513.795    115.07678   -25628.872    1252.1931 
  175400    299.36718   -25523.819    128.49937   -25652.318   -6871.4055 
  175600    314.26765    -25515.96    134.89519   -25650.855   -3062.7373 
  175800    313.19835   -25499.304    134.43621   -25633.741   -3403.3878 
  176000    293.38137   -25518.247    125.93004   -25644.177   -4705.7175 
  176200     290.3744   -25539.127    124.63933   -25663.767   -5902.8861 
  176400    341.95385   -25507.818    146.77912   -25654.597   -722.87911 
  176600    276.17973   -25515.898    118.54646   -25634.444    2740.7587 
  176800     300.6828   -25510.805    129.06408   -25639.869    2159.3232 
  177000    291.86872   -25526.573    125.28075   -25651.853   -2231.4943 
  177200    304.66533   -25500.489    130.77353   -25631.263   -2816.2075 
  177400    307.08957    -25500.44     131.8141   -25632.254    -1090.322 
  177600    270.02504   -25529.696    115.90464     -25645.6    1278.9495 
  177800    297.59919   -25509.025    127.74048   -25636.765    10750.488 
  178000    300.17876    -25499.16    128.84773   -25628.008    3206.7317 
  178200    287.46487   -25522.561    123.39046   -25645.951    2091.5752 
  178400    310.47651   -25505.022     133.2679    -25638.29    10006.877 
  178600    359.46849   -25483.141    154.29705   -25637.438    1057.4558 
  178800    282.96996   -25509.538    121.46108   -25630.999   -6798.3236 
  179000    282.79932   -25528.031    121.38783   -25649.419    -737.6589 
  179200    311.75694    -25502.71    133.81751   -25636.527     337.1938 
  179400    339.61011   -25494.621     145.7731   -25640.395   -4612.9534 
  179600    291.10443   -25525.144    124.95269   -25650.096   -360.83176 
  179800    291.09823   -25517.965    124.95003   -25642.915   -1095.3414 
  180000    312.45884   -25497.129    134.11879   -25631.247    1722.3585 
  180200    265.14524   -25530.541    113.81005   -25644.351    4978.0383 
  180400    302.09761   -25505.954    129.67137   -25635.625   -6518.4367 
  180600     311.6309   -25499.571     133.7634   -25633.334    1295.3029 
  180800    271.95168   -25527.185    116.73163   -25643.917    1483.1985 
  181000    282.82373   -25508.453    121.39831   -25629.851    3365.1084 
  181200    302.10879   -25501.552    129.67617   -25631.228   -8922.9005 
[...]
  950000    313.03792   -25500.997    134.36735   -25635.364   -4928.8278 
  950200    274.46188   -25526.487     117.8091   -25644.296    98.772354 
  950400    279.64601   -25519.146    120.03432    -25639.18   -4714.1125 
  950600    299.02572   -25508.256     128.3528   -25636.609   -4554.5875 
  950800    336.42887   -25477.723     144.4076   -25622.131    1383.5225 
  951000     309.5877   -25512.501    132.88639   -25645.387    1265.4279 
  951200    271.67763   -25518.884    116.61399   -25635.498   -1820.0309 
  951400    346.11449   -25489.037    148.56502   -25637.602   -4521.5799 
  951600    279.53535   -25509.507    119.98681   -25629.494   -2456.0611 
  951800     298.1173   -25506.951    127.96287   -25634.914    3369.5234 
  952000    292.80515    -25526.94     125.6827   -25652.622    3419.2916 
  952200    295.70359   -25532.522    126.92682   -25659.449   -2027.2467 
  952400     304.7438   -25509.997    130.80721   -25640.804    851.47073 
  952600    326.99675   -25509.222    140.35899   -25649.581    2284.7809 
  952800    261.82684   -25532.167    112.38567   -25644.552     880.8696 
  953000     323.0294   -25504.561    138.65605   -25643.217    2658.0979 
  953200    284.11492   -25508.649    121.95254   -25630.602    3685.9886 
  953400    293.55808    -25536.39    126.00589   -25662.396   -73.234404 
  953600    253.60058   -25515.878    108.85466   -25624.732   -7459.2587 
  953800    306.12551    -25510.41    131.40029    -25641.81   -712.27228 
  954000    274.81973   -25514.478     117.9627    -25632.44   -1637.9081 
  954200    317.35525   -25485.453     136.2205   -25621.673    3330.8921 
  954400    323.83546   -25513.606    139.00205   -25652.608     54.41644 
  954600    290.45824   -25513.125    124.67532     -25637.8   -1444.3682 
  954800    338.67678   -25489.609    145.37249   -25634.982    954.89215 
  955000    285.48058   -25518.027    122.53873   -25640.565    4726.5174 
  955200    306.54501   -25506.301    131.58035   -25637.881    3796.0357 
  955400     299.1866   -25502.989    128.42185   -25631.411   -150.09446 
  955600     306.7235   -25529.489    131.65697   -25661.146   -2890.2974 
  955800    292.63352   -25508.998    125.60903   -25634.607    638.72551 
  956000    333.62848     -25474.2    143.20557   -25617.406    1542.6913 
  956200    298.69242   -25492.363    128.20973   -25620.573    -4452.954 
  956400    297.66446   -25515.731    127.76849     -25643.5    48.691711 
  956600    280.20674   -25517.727      120.275   -25638.002   -3917.2398 
  956800    327.74033   -25491.629    140.67816   -25632.307    5315.8294 
  957000    297.14447   -25508.472     127.5453   -25636.017   -2011.0657 
  957200    286.85086   -25512.561     123.1269   -25635.688    1032.9275 
  957400    316.54096   -25485.802    135.87098   -25621.673    1218.3507 
  957600    303.36561    -25510.61    130.21564   -25640.826   -3055.3896 
  957800    317.42899   -25519.951    136.25216   -25656.203   -1436.4643 
  958000    286.67421   -25527.397    123.05108   -25650.448   -2999.4066 
  958200    301.80019   -25501.559     129.5437   -25631.102    4324.6722 
  958400    291.97382   -25505.122    125.32586   -25630.448   -273.75402 
  958600    254.33278    -25535.07    109.16895   -25644.239   -1674.6854 
  958800    282.49631   -25516.712    121.25777    -25637.97    8779.1432 
  959000    316.67192   -25504.712    135.92719   -25640.639   -1725.8436 
  959200    280.94267   -25533.303    120.59089   -25653.894    5308.6808 
  959400     310.5868    -25511.68    133.31524   -25644.996    878.85384 
  959600    299.61944   -25507.585    128.60764   -25636.192   -9269.0925 
  959800    284.67842   -25509.888    122.19441   -25632.083    738.05298 
  960000    263.41653   -25536.527    113.06803   -25649.595   -4751.1182 
  960200     302.0754   -25510.269    129.66183    -25639.93   -1389.1298 
  960400    305.42687   -25506.164    131.10041   -25637.264    5814.6611 
  960600    290.73754   -25522.353    124.79521   -25647.148    2928.1521 
  960800    256.07599   -25535.277     109.9172   -25645.195    1311.3319 
  961000    316.27482   -25508.614    135.75674    -25644.37   -2213.6402 
  961200    277.88181   -25516.865    119.27706   -25636.142    1607.6538 
  961400    332.10432   -25511.738    142.55134    -25654.29   -620.10548 
  961600    298.16564   -25508.274    127.98362   -25636.257   -2302.1222 
  961800    285.18707   -25526.231    122.41274   -25648.644   -2114.6901 
  962000    312.75404   -25493.611    134.24549   -25627.856    1876.8079 
  962200    290.24906   -25514.187    124.58553   -25638.773    1838.8586 
  962400    285.56352   -25518.539    122.57433   -25641.113    3912.1933 
  962600    314.37628    -25489.16    134.94182   -25624.102    6521.7209 
  962800    322.02917    -25509.36    138.22672   -25647.587     1376.561 
  963000    302.80593   -25513.675     129.9754   -25643.651    1386.1307 
  963200    318.81524   -25508.443    136.84718    -25645.29   -1976.8916 
  963400    297.73216   -25526.199    127.79755   -25653.996    2837.3604 
  963600    317.31814    -25495.91    136.20458   -25632.114    22.520002 
  963800    296.41691   -25507.846      127.233   -25635.079    1119.5997 
  964000    277.40127   -25515.148    119.07079   -25634.219    8929.0461 
  964200     299.1551   -25505.746    128.40833   -25634.155      2372.31 
  964400    294.61251   -25516.069    126.45849   -25642.527    2029.7906 
  964600    247.28041    -25547.05    106.14181   -25653.192     1625.582 
  964800     280.6751   -25519.408    120.47604   -25639.885    1.7743736 
  965000    314.27948   -25508.251    134.90027   -25643.151   -5563.7386 
  965200    291.05296   -25525.674     124.9306   -25650.605   -2643.6904 
  965400    273.41213   -25518.172    117.35851    -25635.53    3998.2034 
  965600    309.41089   -25504.322    132.81049   -25637.132   -7499.6973 
  965800    302.79096   -25524.059    129.96897   -25654.028    5392.9274 
  966000    302.32074   -25518.345    129.76714   -25648.112   -5032.6519 
  966200    301.85678   -25504.271    129.56799   -25633.839   -1974.5737 
  966400    277.72062   -25528.763    119.20787   -25647.971   -873.19979 
  966600     284.1579   -25511.124    121.97099   -25633.095   -2684.6254 
  966800    310.87335   -25489.388    133.43823   -25622.827   -866.19211 
  967000    289.64364   -25514.991    124.32567   -25639.317    649.81069 
  967200    306.25894    -25506.96    131.45756   -25638.418   -4533.1148 
  967400    345.63157   -25477.678    148.35773   -25626.036    4806.4732 
  967600    299.23506    -25507.55    128.44266   -25635.993   -56.292651 
  967800    281.37054   -25510.449    120.77455   -25631.224   -5563.1883 
  968000    268.41299   -25534.444    115.21269   -25649.657   -5217.2627 
  968200      313.179   -25506.944     134.4279   -25641.372   -2214.3395 
  968400    282.63133   -25507.901    121.31572   -25629.217   -3919.0431 
  968600    278.10708   -25524.585    119.37375   -25643.959   -420.37488 
  968800    279.27164   -25529.377    119.87362    -25649.25    238.55118 
  969000    317.53203   -25500.573    136.29638   -25636.869   -4218.3914 
  969200    323.91017   -25500.465    139.03411   -25639.499    4008.1114 
  969400    281.10877   -25529.433    120.66218   -25650.096   -1571.1704 
  969600    309.25273   -25505.211     132.7426   -25637.954     656.1375 
  969800    304.72742   -25516.894    130.80018   -25647.694    2619.9383 
  970000    267.86424    -25528.27    114.97715   -25643.248    2827.7458 
  970200    294.18387   -25508.567     126.2745   -25634.841    -5840.562 
  970400    301.58566   -25505.052    129.45162   -25634.503    1911.4812 
  970600    257.26299    -25533.92     110.4267   -25644.347     3616.719 
  970800    306.68587   -25519.486    131.64081   -25651.127    2668.3723 
  971000    306.20733   -25516.565    131.43541       -25648   -5909.1705 
  971200    319.55079   -25514.667    137.16291    -25651.83     2302.393 
  971400    314.24204   -25502.523     134.8842   -25637.407     1381.054 
  971600    279.47414   -25509.381    119.96054   -25629.342    555.80093 
  971800    292.62601   -25511.504    125.60581    -25637.11    2001.3493 
  972000    295.05336   -25510.991    126.64771   -25637.639   -9561.0326 
  972200    339.45097   -25482.954     145.7048   -25628.659     3656.426 
  972400    288.38817       -25514    123.78677   -25637.787    -9624.619 
  972600    311.34729   -25509.678    133.64167    -25643.32    2217.7946 
  972800    321.25479   -25489.911    137.89433   -25627.805   -2341.6076 
  973000    282.16352   -25512.522    121.11492   -25633.637    1960.8726 
  973200    276.84132   -25520.518    118.83044   -25639.348    4658.9463 
  973400      287.558    -25491.06    123.43043    -25614.49    2614.1753 
  973600    289.05525    -25518.71    124.07311   -25642.783    4643.0159 
  973800    329.76039   -25510.033    141.54524   -25651.578   -2342.9547 
  974000    329.35124   -25492.004    141.36962   -25633.373    3582.0287 
  974200    271.95376   -25515.517    116.73252   -25632.249     6907.003 
  974400    273.42724   -25530.394    117.36499   -25647.759   -3010.5158 
  974600    289.33775   -25502.882    124.19437   -25627.077    1416.1191 
  974800     308.5462   -25503.348    132.43934   -25635.787   -3052.7378 
  975000    284.09214   -25525.511    121.94276   -25647.454    338.61862 
  975200    273.25328   -25509.221    117.29032   -25626.511    3541.3321 
  975400    291.14189   -25511.192    124.96877   -25636.161    2864.0864 
  975600    266.84594   -25538.161    114.54006   -25652.701   -9636.1242 
  975800     288.8946   -25513.672    124.00415   -25637.676    853.88646 
  976000    306.80145   -25512.692    131.69042   -25644.383    496.06579 
  976200    297.15029   -25501.187     127.5478   -25628.735     2634.662 
  976400    328.16336   -25510.231    140.85974    -25651.09   -2656.7767 
  976600    270.73107    -25522.63     116.2077   -25638.837    1529.8884 
  976800     305.5276   -25496.708    131.14364   -25627.852   -896.04744 
  977000     269.0362   -25508.419     115.4802   -25623.899   -1877.8174 
  977200    281.95512   -25529.525    121.02547   -25650.551    3352.3038 
  977400    278.64582   -25526.972      119.605   -25646.577   -248.86512 
  977600    320.87494   -25508.252    137.73128   -25645.983    6473.9684 
  977800    291.25115   -25523.406    125.01567   -25648.421   -2359.8582 
  978000    304.88873   -25521.926    130.86941   -25652.795   -2767.2011 
  978200    282.82713   -25500.481    121.39977   -25621.881      4584.69 
  978400     254.9882   -25524.594    109.45028   -25634.044    4953.2733 
  978600    273.27639   -25523.428    117.30024   -25640.729   -3975.4246 
  978800    273.78451   -25515.673    117.51834   -25633.191   -8122.3819 
  979000    317.30865   -25489.856     136.2005   -25626.056   -12432.372 
  979200    268.66265   -25522.039    115.31985   -25637.359    6818.2724 
  979400    300.89752   -25505.461    129.15624   -25634.617    633.63592 
  979600    300.04347   -25500.538    128.78966   -25629.328    3044.8139 
  979800    287.57175       -25524    123.43634   -25647.437    5119.5157 
  980000     332.8281   -25501.234    142.86202   -25644.096   -4097.2041 
  980200    302.34617    -25500.84    129.77805   -25630.618    6693.3137 
  980400    306.98214   -25515.533    131.76798   -25647.301   -2048.4523 
  980600    263.00902   -25539.301    112.89311   -25652.194   -3451.3269 
  980800    285.49723   -25524.509    122.54587   -25647.055     7296.223 
  981000    337.58006   -25505.247    144.90173   -25650.149   -8056.4875 
  981200    301.20972    -25508.69    129.29025    -25637.98   -4345.5745 
  981400    307.24618   -25510.842    131.88132   -25642.723    3071.5781 
  981600    304.76262   -25489.219    130.81529   -25620.034   -4013.0195 
  981800    296.41848    -25517.84    127.23367   -25645.073    3835.4671 
  982000    288.39307   -25514.616    123.78887   -25638.405    2544.1986 
  982200    324.94392   -25490.031    139.47784   -25629.509   -1585.8278 
  982400    288.27638   -25521.446    123.73879   -25645.185    1362.5354 
  982600    295.83885   -25506.694    126.98488   -25633.678    1037.4491 
  982800    289.59017   -25505.816    124.30272   -25630.119   -3495.9935 
  983000    301.68877    -25519.16    129.49588   -25648.656   -6370.3914 
  983200    289.55974   -25503.444    124.28965   -25627.734    1030.6638 
  983400    312.42885   -25498.744    134.10591    -25632.85    -1830.031 
  983600    304.24007   -25518.492    130.59099   -25649.083   -714.89151 
  983800    286.23212   -25527.449    122.86131   -25650.311   -5245.4735 
  984000    322.96569     -25497.8    138.62871   -25636.428   -5058.2575 
  984200    287.12039   -25516.721    123.24259   -25639.964    2227.0215 
  984400    261.87867   -25528.689    112.40792   -25641.097     3523.584 
  984600    317.95417   -25513.986    136.47758   -25650.464    6157.0705 
  984800    300.76123   -25503.144    129.09774   -25632.242   -857.80268 
  985000    280.31192   -25525.479    120.32015   -25645.799   -10190.276 
  985200    298.66039    -25517.19    128.19598   -25645.386    475.72359 
  985400    284.86157   -25512.504    122.27303   -25634.777   -5142.4889 
  985600    261.92449   -25512.431    112.42759   -25624.858   -627.08279 
  985800    275.49741   -25511.852    118.25359   -25630.106    2384.1451 
  986000    313.09899    -25509.02    134.39356   -25643.414   -3347.2856 
  986200    299.40915   -25513.101    128.51738   -25641.618   -2158.5428 
  986400    345.40709   -25480.924    148.26138   -25629.186   -3445.9053 
  986600    311.00691   -25500.086    133.49556   -25633.581   -2035.2315 
  986800    302.15369   -25519.929    129.69544   -25649.624    6607.1517 
  987000    292.21593   -25497.009    125.42979   -25622.438   -670.25039 
  987200    302.65217   -25493.101     129.9094    -25623.01    1581.6565 
  987400    281.30628   -25518.447    120.74696   -25639.194    1511.0371 
  987600    321.37797   -25513.802     137.9472   -25651.749   -10374.959 
  987800    301.67543   -25500.207    129.49015   -25629.697    7806.6063 
  988000    299.23322   -25505.074    128.44186   -25633.516   -2570.9361 
  988200    291.86363   -25515.401    125.27857   -25640.679   -312.94782 
  988400    338.20657   -25489.647    145.17065   -25634.818     1313.752 
  988600    309.98312   -25512.257    133.05611   -25645.313    4006.9598 
  988800    275.22554   -25520.552    118.13689   -25638.688    4916.4976 
  989000    322.65854   -25487.373    138.49687   -25625.869     3069.207 
  989200    310.43504   -25507.648     133.2501   -25640.898    1285.0352 
  989400    299.25978   -25515.193    128.45327   -25643.646   -3602.7033 
  989600    272.99632   -25508.741    117.18002   -25625.921    3211.7707 
  989800    293.50706   -25519.296    125.98399    -25645.28   -2722.5274 
  990000    274.91844    -25531.85    118.00507   -25649.855   -3352.7751 
  990200    314.33499   -25506.786     134.9241    -25641.71    4111.7305 
  990400    273.19712   -25509.983    117.26622   -25627.249    -3849.025 
  990600    308.07055   -25502.212    132.23517   -25634.447   -1184.1308 
  990800    298.15766   -25525.745    127.98019   -25653.725   -1295.4104 
  991000    280.20317   -25497.445    120.27347   -25617.719   -1431.8101 
  991200    292.10224   -25501.667    125.38099   -25627.048   -453.26915 
  991400    275.71019   -25522.205    118.34492    -25640.55    2459.0473 
  991600    262.09013   -25543.901    112.49869     -25656.4   -2910.2988 
  991800    302.50915   -25513.172    129.84801    -25643.02   -2198.2697 
  992000    320.58484   -25510.052    137.60676   -25647.658     2100.237 
  992200    259.43001   -25528.413    111.35687    -25639.77     12.03392 
  992400     286.2191   -25511.102    122.85573   -25633.958    1479.0721 
  992600    289.80145   -25515.155     124.3934   -25639.548    -3782.637 
  992800    280.10619   -25526.815    120.23184   -25647.047   -3062.7026 
  993000     333.0573   -25493.554     142.9604   -25636.515    1934.0881 
  993200    303.63501   -25516.019    130.33127    -25646.35    2632.1371 
  993400    279.17246    -25519.88    119.83105   -25639.711    -4732.155 
  993600    287.32343   -25508.775    123.32974   -25632.105   -6240.1555 
  993800    321.22167   -25500.214    137.88011   -25638.094    3468.6098 
  994000    295.43749   -25522.959     126.8126   -25649.772   -4175.1316 
  994200    317.46567   -25499.873     136.2679   -25636.141    4733.4189 
  994400    304.76351   -25503.809    130.81567   -25634.625    2302.6754 
  994600    287.38331    -25510.27    123.35545   -25633.625    48.284457 
  994800     293.2693   -25499.842    125.88193   -25625.724    4679.8799 
  995000     294.8797   -25492.187    126.57317    -25618.76    1630.0118 
  995200    307.41206   -25520.845    131.95252   -25652.798    2940.4245 
  995400    291.41906   -25510.919    125.08774   -25636.006   -1557.8731 
  995600    294.45992   -25500.028    126.39299   -25626.421    3972.5921 
  995800    299.80243   -25516.809    128.68619   -25645.496      2332.77 
  996000    305.04896   -25512.363    130.93819   -25643.301   -3699.5421 
  996200    313.13813   -25487.854    134.41036   -25622.265      5102.71 
  996400    328.21351   -25505.417    140.88127   -25646.298   -1231.2375 
  996600    261.95456   -25519.639     112.4405    -25632.08   -3870.8951 
  996800    323.92716   -25494.885    139.04141   -25633.926    597.15115 
  997000    298.66425   -25508.233    128.19764   -25636.431   -4046.5527 
  997200    290.29189    -25520.17    124.60392   -25644.774    5616.3459 
  997400    318.11423   -25498.252    136.54629   -25634.798    4574.7449 
  997600     296.3283   -25524.665    127.19496    -25651.86    5499.1034 
  997800    287.81082   -25522.404    123.53895   -25645.943   -702.10513 
  998000    277.32156   -25507.126    119.03658   -25626.163    2961.6353 
  998200    301.20798   -25511.213     129.2895   -25640.503    8343.6645 
  998400    236.09974   -25536.926    101.34266   -25638.268   -2381.5315 
  998600    322.05033   -25516.043     138.2358   -25654.279   -1951.6776 
  998800    298.23438   -25508.059    128.01313   -25636.072   -249.92256 
  999000    314.69198    -25488.04    135.07733   -25623.118   -13819.195 
  999200    304.95545   -25513.775    130.89806   -25644.674   -2167.5445 
  999400    321.72491     -25515.4    138.09612   -25653.497    5234.5164 
  999600    342.56886   -25480.375    147.04311   -25627.418    2893.0703 
  999800    289.17353    -25508.32    124.12388   -25632.443    1897.8163 
 1000000    311.41137   -25504.511    133.66917    -25638.18    7992.0657 
Loop time of 3154.84 on 8 procs for 1000000 steps with 145 atoms

Performance: 6.847 ns/day, 3.505 hours/ns, 316.974 timesteps/s
99.3% CPU use with 8 MPI tasks x no OpenMP threads

MPI task timing breakdown:
Section |  min time  |  avg time  |  max time  |%varavg| %total
---------------------------------------------------------------
Pair    | 1391.4     | 1720.6     | 2701.6     |1336.9 | 54.54
Neigh   | 0.49043    | 0.52353    | 0.5948     |   5.7 |  0.02
Comm    | 25.926     | 1006.8     | 1335.1     |1746.3 | 31.91
Output  | 0.11443    | 0.1264     | 0.20415    |   8.3 |  0.00
Modify  | 422.49     | 423.75     | 424.92     |   4.4 | 13.43
Other   |            | 2.945      |            |       |  0.09

Nlocal:    18.125 ave 70 max 0 min
Histogram: 6 0 0 0 0 0 0 0 0 2
Nghost:    603.5 ave 671 max 563 min
Histogram: 1 2 3 0 0 0 0 0 0 2
Neighs:    1188.38 ave 4441 max 0 min
Histogram: 6 0 0 0 0 0 0 0 0 2

Total # of neighbors = 9507
Ave neighs/atom = 65.5655
Neighbor list builds = 768
Dangerous builds = 0

Please see the log.cite file for references relevant to this simulation

Total wall time: 0:52:37
