ITEM: TIMESTEP
0
ITEM: NUMBER OF ATOMS
161
ITEM: BOX BOUNDS xy xz yz pp pp pp
-6.7755000000000001e+00 1.3552000000000000e+01 -6.7755000000000001e+00
0.0000000000000000e+00 1.1735510246683001e+01 0.0000000000000000e+00
0.0000000000000000e+00 2.2149999999999999e+01 0.0000000000000000e+00
ITEM: ATOMS id type x y z 
8 1 -2.486 5.297 9.849 
87 1 3.001 4.231 10.696 
90 1 2.733 5.481 9.824 
109 1 -2.486 5.297 0.765 
158 1 2.733 5.481 0.79 
161 2 2.733 5.481 8.724 
11 1 4.24 4.139 20.131 
14 1 3.031 4.094 19.728 
18 1 1.299 5.827 18.554 
33 1 2.266 4.151 20.924 
43 1 4.343 3.96 21.647 
47 1 3.32 5.732 17.88 
52 1 4.24 4.139 12.633 
76 1 2.552 4.924 14.209 
85 1 4.343 3.96 11.117 
89 1 3.32 5.732 14.883 
91 1 1.036 5.037 11.84 
102 1 3.031 4.094 13.035 
105 1 1.299 5.827 14.209 
114 1 2.266 4.151 11.84 
150 1 2.552 4.924 18.554 
156 1 3.001 4.231 22.068 
159 1 1.036 5.037 20.924 
5 1 -5.049 10.63 8.653 
9 1 -3.317 8.897 7.479 
19 1 -1.707 7.414 10.572 
21 1 -2.66 8.795 10.993 
23 1 -3.31 7.532 6.805 
25 1 -4.284 10.573 9.849 
32 1 1.503 6.367 0.79 
36 1 -1.869 7.426 9.056 
38 1 -2.209 6.086 8.653 
54 1 0.3 8.576 10.696 
57 1 1.291 8.001 9.824 
60 1 -1.707 7.414 0.042 
65 1 -3.31 7.532 3.808 
78 1 -1.869 7.426 1.558 
80 1 -2.566 8.842 1.961 
84 1 -4.57 9.799 3.135 
99 1 -3.054 9.687 0.765 
100 1 -2.96 6.142 3.135 
107 1 -5.049 10.63 1.961 
110 1 -3.317 8.897 3.135 
111 1 0.642 5.929 10.696 
113 1 1.503 6.367 9.824 
119 1 -4.284 10.573 0.765 
127 1 -2.209 6.086 1.961 
131 1 -2.318 6.148 10.993 
138 1 1.291 8.001 0.79 
142 1 -2.566 8.842 8.653 
145 1 -4.57 9.799 7.479 
151 1 -5.019 10.493 10.993 
154 1 -3.054 9.687 9.849 
155 1 -2.96 6.142 7.479 
12 1 2.53 7.1 17.202 
17 1 0.468 9.427 20.924 
24 1 -3.52 8.357 11.865 
27 1 -0.31 7.31 21.647 
29 1 0.642 5.929 22.068 
31 1 1.292 7.192 17.88 
44 1 -0.148 7.298 20.131 
46 1 0.191 8.638 19.728 
51 1 -0.31 7.31 11.117 
53 1 2.53 7.1 15.561 
56 1 1.292 7.192 14.883 
63 1 -2.318 6.148 21.771 
66 1 -3.309 6.723 20.899 
70 1 -0.148 7.298 12.633 
72 1 0.548 5.882 13.035 
92 1 0.942 8.582 14.209 
95 1 -5.019 10.493 21.771 
98 1 -4.751 9.243 20.899 
104 1 0.468 9.427 11.84 
116 1 -2.66 8.795 21.771 
118 1 -3.52 8.357 20.899 
122 1 0.191 8.638 13.035 
133 1 -3.309 6.723 11.865 
136 1 0.3 8.576 22.068 
147 1 0.548 5.882 19.728 
153 1 -4.751 9.243 11.865 
160 1 0.942 8.582 18.554 
1 1 7.976 4.694 10.572 
4 1 9.274 4.77 10.993 
20 1 8.034 4.861 9.056 
42 1 9.55 5.41 7.479 
67 1 10.043 4.578 0.765 
77 1 7.976 4.694 0.042 
94 1 8.035 4.861 1.558 
96 1 9.278 4.635 1.961 
121 1 4.688 5.417 10.696 
130 1 9.55 5.41 3.135 
134 1 10.043 4.578 9.849 
152 1 9.278 4.635 8.653 
45 1 4.688 5.417 22.068 
55 1 4.788 5.329 13.035 
106 1 9.274 4.77 21.771 
137 1 4.788 5.329 19.728 
2 1 7.294 10.585 9.056 
3 1 9.004 7.624 6.127 
6 1 8.556 6.347 6.805 
16 1 2.314 8.72 0.79 
22 1 7.166 6.156 8.653 
26 1 7.226 8.565 7.479 
35 1 7.191 10.764 10.572 
37 1 6.846 9.307 10.993 
39 1 8.214 8.992 6.805 
41 1 6.677 7.002 9.849 
48 1 3.775 6.213 0.79 
61 1 7.294 10.585 1.558 
62 1 9.004 7.624 4.487 
64 1 6.747 9.395 1.961 
68 1 7.437 6.931 3.135 
71 1 4.29 8.493 10.696 
74 1 3.567 7.818 9.824 
81 1 8.556 6.347 3.808 
83 1 6.47 8.606 0.765 
93 1 7.191 10.764 0.042 
97 1 8.214 8.992 3.808 
101 1 2.261 9.954 10.696 
103 1 2.314 8.72 9.824 
117 1 7.166 6.156 1.961 
120 1 7.226 8.565 3.135 
123 1 3.775 6.213 9.824 
129 1 6.677 7.002 0.765 
132 1 6.747 9.395 8.653 
135 1 7.437 6.931 7.479 
141 1 7.244 6.231 10.993 
144 1 6.47 8.606 9.849 
148 1 3.567 7.818 0.79 
7 1 9.22 6.004 11.865 
10 1 3.558 10.029 21.647 
13 1 2.261 9.954 22.068 
15 1 2.978 8.376 17.88 
28 1 3.5 9.862 20.131 
30 1 4.369 8.568 19.728 
34 1 4.308 6.159 18.554 
40 1 7.76 8.511 11.865 
49 1 4.857 7.722 20.924 
50 1 1.984 9.314 18.554 
58 1 1.491 10.146 11.84 
59 1 4.097 7.793 14.209 
69 1 3.558 10.029 11.117 
73 1 2.978 8.376 14.883 
75 1 5.064 6.118 11.84 
79 1 7.244 6.231 21.771 
82 1 7.967 6.906 20.899 
86 1 3.5 9.862 12.633 
88 1 2.256 10.089 13.035 
108 1 9.22 6.004 20.899 
112 1 4.369 8.568 13.035 
115 1 4.308 6.159 14.209 
124 1 4.857 7.722 11.84 
125 1 1.984 9.314 14.209 
126 1 6.846 9.307 21.771 
128 1 7.76 8.511 20.899 
139 1 1.491 10.146 20.924 
140 1 4.097 7.793 18.554 
143 1 7.967 6.906 11.865 
146 1 4.29 8.493 22.068 
149 1 5.064 6.118 20.924 
157 1 2.256 10.089 19.728 
ITEM: TIMESTEP
10
ITEM: NUMBER OF ATOMS
161
ITEM: BOX BOUNDS xy xz yz pp pp pp
-6.7755000000000001e+00 1.3552000000000000e+01 -6.7755000000000001e+00
0.0000000000000000e+00 1.1735510246683001e+01 0.0000000000000000e+00
0.0000000000000000e+00 2.2149999999999999e+01 0.0000000000000000e+00
ITEM: ATOMS id type x y z 
8 1 -2.41146 5.36035 9.84238 
87 1 3.02584 4.2322 10.7091 
90 1 2.72696 5.59094 9.71988 
109 1 -2.41025 5.36274 0.772826 
158 1 2.65572 5.46092 0.832258 
161 2 2.76999 5.44569 8.63556 
11 1 4.29159 4.19271 20.1384 
14 1 2.91659 4.12812 19.6974 
18 1 1.33961 5.84271 18.5792 
33 1 2.13809 4.23291 20.9003 
43 1 4.32396 4.12442 21.5845 
47 1 3.24854 5.79788 17.8432 
52 1 4.28304 4.17591 12.6441 
76 1 2.43116 4.89915 14.1826 
85 1 4.32968 4.08742 11.1991 
89 1 3.25331 5.79944 14.9164 
91 1 0.988591 5.10008 11.8561 
102 1 2.92641 4.12072 13.0751 
105 1 1.33229 5.85434 14.1655 
114 1 2.1398 4.2324 11.8458 
150 1 2.43352 4.90775 18.5791 
156 1 2.96519 4.2676 22.1215 
159 1 0.990395 5.06422 20.9177 
5 1 -4.92787 10.6024 8.63634 
9 1 -3.36002 8.87404 7.52013 
19 1 -1.75787 7.52078 10.5634 
21 1 -2.62016 8.76273 10.9171 
23 1 -3.31219 7.51753 6.82863 
25 1 -4.1474 10.4774 9.83027 
32 1 1.58579 6.3381 0.778015 
36 1 -1.91422 7.5404 9.05065 
38 1 -2.15341 6.21051 8.64638 
54 1 0.26624 8.52136 10.687 
57 1 1.26772 7.93086 9.75535 
60 1 -1.76319 7.51913 0.04963 
65 1 -3.31306 7.5185 3.78359 
78 1 -1.90717 7.53926 1.56594 
80 1 -2.56551 8.78679 1.88818 
84 1 -4.45809 9.82585 3.11025 
99 1 -2.99384 9.62482 0.790694 
100 1 -2.9242 6.23946 3.17232 
107 1 -4.92733 10.6023 1.98743 
110 1 -3.34768 8.87954 3.09121 
111 1 0.657774 5.952 10.7368 
113 1 1.4022 6.42957 9.89994 
119 1 -4.13411 10.4805 0.807515 
127 1 -2.15706 6.2057 1.96753 
131 1 -2.32096 6.19716 11.0128 
138 1 1.3496 7.99412 0.828088 
142 1 -2.56686 8.78512 8.72187 
145 1 -4.45364 9.83534 7.50766 
151 1 -4.98727 10.4487 11.0379 
154 1 -2.99729 9.62123 9.82762 
155 1 -2.92407 6.24132 7.44017 
12 1 2.5823 7.05691 17.1113 
17 1 0.387801 9.3665 20.9273 
24 1 -3.59556 8.39426 11.8566 
27 1 -0.26411 7.22779 21.6338 
29 1 0.597331 5.96009 21.9538 
31 1 1.29117 7.1916 17.905 
44 1 -0.122217 7.20995 20.1435 
46 1 0.129673 8.51695 19.7166 
51 1 -0.290223 7.24827 11.1514 
53 1 2.57602 7.0722 15.6428 
56 1 1.29463 7.18944 14.8485 
63 1 -2.31531 6.20449 21.7519 
66 1 -3.36573 6.71785 20.8578 
70 1 -0.108193 7.17806 12.6184 
72 1 0.55981 5.9324 12.9588 
92 1 0.904207 8.47613 14.2475 
95 1 -4.9674 10.4815 21.703 
98 1 -4.68224 9.2601 20.8401 
104 1 0.397736 9.37406 11.8536 
116 1 -2.6081 8.76193 21.8513 
118 1 -3.59282 8.39005 20.8976 
122 1 0.141139 8.52147 13.0485 
133 1 -3.36942 6.72427 11.9082 
136 1 0.30119 8.51481 22.0923 
147 1 0.53435 5.93178 19.8364 
153 1 -4.68015 9.27848 11.901 
160 1 0.904805 8.48164 18.51 
1 1 7.8938 4.94496 10.5367 
4 1 9.17497 4.77533 11.0358 
20 1 7.86913 4.93373 9.06608 
42 1 9.45814 5.42699 7.43142 
67 1 9.98921 4.54591 0.757058 
77 1 7.89302 4.94549 0.080628 
94 1 7.87219 4.93792 1.54585 
96 1 9.20662 4.64555 1.99904 
121 1 4.64581 5.45085 10.6935 
130 1 9.45905 5.42649 3.18041 
134 1 9.98991 4.54524 9.85678 
152 1 9.20911 4.6446 8.61396 
45 1 4.69049 5.42585 22.0396 
55 1 4.83117 5.49073 13.0625 
106 1 9.17491 4.77593 21.7279 
137 1 4.8157 5.47888 19.7055 
2 1 7.2367 10.5376 9.06248 
3 1 8.95673 7.64162 6.03946 
6 1 8.55123 6.41391 6.83862 
16 1 2.34071 8.69194 0.837593 
22 1 7.14611 6.19554 8.71755 
26 1 7.18012 8.43138 7.55794 
35 1 7.21908 10.5951 10.5111 
37 1 6.84538 9.30553 10.9618 
39 1 8.28635 8.92356 6.78267 
41 1 6.73857 7.02144 9.84108 
48 1 3.72362 6.36592 0.844422 
61 1 7.23904 10.5356 1.5485 
62 1 8.95359 7.64781 4.57165 
64 1 6.71553 9.23548 1.99411 
68 1 7.40675 6.97052 3.05932 
71 1 4.28317 8.53681 10.7867 
74 1 3.62257 7.76751 9.85749 
81 1 8.55173 6.41263 3.77525 
83 1 6.54589 8.43388 0.797853 
93 1 7.19107 10.6037 0.116577 
97 1 8.27811 8.9243 3.83249 
101 1 2.37002 9.92825 10.6355 
103 1 2.42714 8.73969 9.78101 
117 1 7.14828 6.1943 1.89475 
120 1 7.17821 8.43067 3.06135 
123 1 3.72837 6.2963 9.83605 
129 1 6.74168 7.01938 0.773776 
132 1 6.71898 9.23267 8.62337 
135 1 7.40785 6.97192 7.555 
141 1 7.25356 6.17227 10.9028 
144 1 6.54712 8.44242 9.81676 
148 1 3.63682 7.79284 0.766752 
7 1 9.18735 6.02581 11.9119 
10 1 3.65016 9.77404 21.6131 
13 1 2.35775 9.95417 22.1213 
15 1 2.99842 8.32491 17.9059 
28 1 3.66918 9.79361 20.1354 
30 1 4.38952 8.52301 19.7893 
34 1 4.3635 6.29554 18.631 
40 1 7.81073 8.35811 11.9243 
49 1 4.79565 7.70429 20.9152 
50 1 2.06482 9.30618 18.5109 
58 1 1.54622 10.1729 11.8367 
59 1 4.13199 7.7577 14.1302 
69 1 3.65556 9.77231 11.1539 
73 1 2.98404 8.31242 14.8533 
75 1 4.98383 6.28305 11.8573 
79 1 7.24852 6.17258 21.8631 
82 1 7.89717 6.92476 20.9215 
86 1 3.66772 9.80028 12.6201 
88 1 2.31369 10.0812 13.069 
108 1 9.19012 6.02427 20.8528 
112 1 4.39097 8.52732 12.9751 
115 1 4.35361 6.29918 14.1417 
124 1 4.80022 7.6986 11.852 
125 1 2.07206 9.30197 14.2548 
126 1 6.82759 9.30075 21.7974 
128 1 7.80923 8.3533 20.8371 
139 1 1.54104 10.1836 20.9271 
140 1 4.13183 7.75818 18.6362 
143 1 7.89946 6.92321 11.8415 
146 1 4.28497 8.55156 21.9832 
149 1 4.98961 6.27925 20.8963 
157 1 2.32214 10.0821 19.6864 
ITEM: TIMESTEP
20
ITEM: NUMBER OF ATOMS
161
ITEM: BOX BOUNDS xy xz yz pp pp pp
-6.7755000000000001e+00 1.3552000000000000e+01 -6.7755000000000001e+00
0.0000000000000000e+00 1.1735510246683001e+01 0.0000000000000000e+00
0.0000000000000000e+00 2.2149999999999999e+01 0.0000000000000000e+00
ITEM: ATOMS id type x y z 
8 1 -2.42497 5.38984 9.83539 
87 1 3.00836 4.26725 10.7123 
90 1 2.7254 5.57151 9.70971 
109 1 -2.42409 5.39175 0.780206 
158 1 2.6479 5.46275 0.833596 
161 2 2.76632 5.42702 8.61404 
11 1 4.27886 4.21495 20.1269 
14 1 2.90666 4.14618 19.6917 
18 1 1.30893 5.8671 18.5919 
33 1 2.12403 4.22602 20.9045 
43 1 4.30302 4.1772 21.5753 
47 1 3.26077 5.79856 17.8364 
52 1 4.28013 4.2021 12.6585 
76 1 2.4506 4.91745 14.1829 
85 1 4.30309 4.13621 11.2062 
89 1 3.26516 5.79474 14.9286 
91 1 0.983849 5.10116 11.8572 
102 1 2.90493 4.14113 13.0782 
105 1 1.29723 5.85471 14.1761 
114 1 2.12585 4.24497 11.847 
150 1 2.43527 4.9374 18.5828 
156 1 2.9659 4.26948 22.1172 
159 1 0.979158 5.04978 20.9189 
5 1 -4.92057 10.5786 8.63075 
9 1 -3.31604 8.86447 7.50723 
19 1 -1.76952 7.53033 10.5605 
21 1 -2.63467 8.76302 10.9509 
23 1 -3.30908 7.53631 6.82817 
25 1 -4.12677 10.4628 9.82948 
32 1 1.60626 6.37064 0.753106 
36 1 -1.89567 7.55526 9.05943 
38 1 -2.15852 6.22404 8.64256 
54 1 0.285757 8.5148 10.6752 
57 1 1.26058 7.96233 9.76028 
60 1 -1.76945 7.53155 0.060939 
65 1 -3.31177 7.5388 3.77903 
78 1 -1.8909 7.55495 1.55107 
80 1 -2.5524 8.78739 1.89279 
84 1 -4.46724 9.80052 3.10363 
99 1 -2.98382 9.60884 0.774826 
100 1 -2.93331 6.27451 3.17459 
107 1 -4.91529 10.5789 1.98903 
110 1 -3.3149 8.86317 3.10666 
111 1 0.655554 5.93702 10.7091 
113 1 1.39722 6.43404 9.88095 
119 1 -4.12229 10.4626 0.784516 
127 1 -2.15997 6.2243 1.97059 
131 1 -2.3408 6.21267 11.0154 
138 1 1.37027 7.96705 0.815935 
142 1 -2.55216 8.78769 8.71759 
145 1 -4.47112 9.80619 7.51154 
151 1 -4.97764 10.4521 11.0296 
154 1 -2.98494 9.60799 9.84116 
155 1 -2.93234 6.27179 7.43938 
12 1 2.56107 7.06575 17.1512 
17 1 0.407589 9.33515 20.9201 
24 1 -3.62323 8.36528 11.8494 
27 1 -0.271536 7.23481 21.6267 
29 1 0.612473 5.96567 21.9556 
31 1 1.29041 7.16934 17.9162 
44 1 -0.148908 7.20062 20.1496 
46 1 0.139933 8.51376 19.7124 
51 1 -0.318891 7.24878 11.1676 
53 1 2.55855 7.07192 15.615 
56 1 1.28897 7.18236 14.86 
63 1 -2.32922 6.22023 21.7476 
66 1 -3.38316 6.73517 20.8667 
70 1 -0.126631 7.16845 12.62 
72 1 0.548215 5.92034 12.9467 
92 1 0.915347 8.4541 14.2476 
95 1 -4.97622 10.448 21.7296 
98 1 -4.68256 9.2756 20.8502 
104 1 0.407759 9.34648 11.8608 
116 1 -2.62952 8.76048 21.8162 
118 1 -3.62178 8.36844 20.9129 
122 1 0.143858 8.50744 13.0504 
133 1 -3.38354 6.73526 11.8979 
136 1 0.316826 8.5101 22.0931 
147 1 0.53323 5.93432 19.8546 
153 1 -4.68339 9.27829 11.9112 
160 1 0.917416 8.44684 18.5138 
1 1 7.8664 4.9311 10.5284 
4 1 9.1675 4.79448 11.0186 
20 1 7.847 4.93654 9.05885 
42 1 9.45981 5.44074 7.44102 
67 1 9.97294 4.56592 0.767241 
77 1 7.86581 4.93185 0.0920591 
94 1 7.85293 4.94228 1.54995 
96 1 9.18074 4.66831 1.99016 
121 1 4.67849 5.47407 10.6842 
130 1 9.45846 5.44163 3.17277 
134 1 9.97223 4.56442 9.84694 
152 1 9.18643 4.667 8.62111 
45 1 4.66322 5.47954 22.0632 
55 1 4.82373 5.5073 13.0673 
106 1 9.16707 4.79458 21.7459 
137 1 4.81622 5.50195 19.702 
2 1 7.25953 10.5051 9.05251 
3 1 8.97912 7.64941 6.07473 
6 1 8.52104 6.39187 6.82126 
16 1 2.3575 8.6873 0.845515 
22 1 7.12004 6.19017 8.7182 
26 1 7.19623 8.43261 7.54451 
35 1 7.23569 10.5421 10.4918 
37 1 6.87526 9.24933 10.9828 
39 1 8.27116 8.93477 6.767 
41 1 6.72493 7.00007 9.83518 
48 1 3.69963 6.35679 0.823566 
61 1 7.25592 10.5133 1.56685 
62 1 8.97949 7.65146 4.53627 
64 1 6.71506 9.22307 1.98934 
68 1 7.39379 6.9631 3.06021 
71 1 4.30803 8.52596 10.7762 
74 1 3.59381 7.78905 9.8224 
81 1 8.52352 6.39293 3.79151 
83 1 6.54567 8.43464 0.782771 
93 1 7.23546 10.5473 0.115625 
97 1 8.27079 8.93324 3.84831 
101 1 2.3851 9.9066 10.6421 
103 1 2.44392 8.70609 9.78764 
117 1 7.12355 6.18511 1.8937 
120 1 7.19239 8.42969 3.0723 
123 1 3.71104 6.308 9.84655 
129 1 6.72693 6.99983 0.779005 
132 1 6.72045 9.22911 8.62995 
135 1 7.39439 6.96289 7.55563 
141 1 7.22801 6.19724 10.9288 
144 1 6.54642 8.43854 9.8288 
148 1 3.59762 7.79084 0.790959 
7 1 9.17153 6.03032 11.9242 
10 1 3.66853 9.79099 21.5958 
13 1 2.36907 9.92532 22.095 
15 1 3.01478 8.3281 17.8925 
28 1 3.6799 9.78298 20.1394 
30 1 4.41019 8.53727 19.7922 
34 1 4.33776 6.29668 18.6175 
40 1 7.83644 8.36827 11.8998 
49 1 4.80889 7.72288 20.9101 
50 1 2.07221 9.28177 18.5178 
58 1 1.56508 10.1494 11.8367 
59 1 4.14324 7.76408 14.1375 
69 1 3.69831 9.78244 11.1675 
73 1 3.00398 8.33385 14.8698 
75 1 4.98517 6.29394 11.8705 
79 1 7.2271 6.19584 21.8364 
82 1 7.93636 6.93099 20.8974 
86 1 3.68874 9.78934 12.6277 
88 1 2.34328 10.0559 13.0628 
108 1 9.17462 6.03217 20.8398 
112 1 4.41597 8.54243 12.9714 
115 1 4.34149 6.2935 14.1466 
124 1 4.81935 7.71791 11.8608 
125 1 2.07754 9.28072 14.2457 
126 1 6.87078 9.24963 21.7795 
128 1 7.83632 8.36762 20.8609 
139 1 1.56236 10.1588 20.9209 
140 1 4.14037 7.75982 18.6315 
143 1 7.93686 6.93138 11.8668 
146 1 4.30726 8.52784 22.0047 
149 1 4.98914 6.29065 20.9014 
157 1 2.35303 10.0542 19.6987 
ITEM: TIMESTEP
30
ITEM: NUMBER OF ATOMS
161
ITEM: BOX BOUNDS xy xz yz pp pp pp
-6.7755000000000001e+00 1.3552000000000000e+01 -6.7755000000000001e+00
0.0000000000000000e+00 1.1735510246683001e+01 0.0000000000000000e+00
0.0000000000000000e+00 2.2149999999999999e+01 0.0000000000000000e+00
ITEM: ATOMS id type x y z 
8 1 -2.43092 5.40139 9.8345 
87 1 3.001 4.2802 10.7089 
90 1 2.72232 5.56573 9.70014 
109 1 -2.42939 5.40448 0.778315 
158 1 2.64098 5.45618 0.832184 
161 2 2.76465 5.41729 8.60534 
11 1 4.27911 4.22247 20.1224 
14 1 2.89886 4.1492 19.6947 
18 1 1.30802 5.86328 18.5975 
33 1 2.1176 4.22117 20.9049 
43 1 4.29578 4.19963 21.5715 
47 1 3.25074 5.80108 17.8293 
52 1 4.28128 4.21261 12.6619 
76 1 2.44344 4.92396 14.1867 
85 1 4.29481 4.16432 11.2123 
89 1 3.25223 5.79997 14.9313 
91 1 0.976291 5.10487 11.8531 
102 1 2.90002 4.14428 13.0772 
105 1 1.30105 5.85264 14.1822 
114 1 2.117 4.24926 11.8462 
150 1 2.42851 4.93796 18.5841 
156 1 2.9636 4.27473 22.121 
159 1 0.969167 5.04889 20.9195 
5 1 -4.90686 10.5748 8.63056 
9 1 -3.31696 8.87159 7.50012 
19 1 -1.77423 7.53558 10.5626 
21 1 -2.6316 8.76644 10.9585 
23 1 -3.30025 7.54028 6.82398 
25 1 -4.11407 10.4566 9.82819 
32 1 1.60589 6.38248 0.752644 
36 1 -1.8876 7.5609 9.05991 
38 1 -2.1578 6.23456 8.6412 
54 1 0.285927 8.50908 10.6783 
57 1 1.25854 7.9638 9.75806 
60 1 -1.77199 7.53582 0.0555096 
65 1 -3.30082 7.54062 3.78706 
78 1 -1.88126 7.5615 1.55146 
80 1 -2.54268 8.79244 1.89474 
84 1 -4.46208 9.79744 3.10631 
99 1 -2.97822 9.60389 0.769184 
100 1 -2.93549 6.27556 3.17174 
107 1 -4.9059 10.5745 1.9851 
110 1 -3.31649 8.87268 3.11344 
111 1 0.653855 5.93327 10.6996 
113 1 1.38995 6.43875 9.87318 
119 1 -4.1124 10.456 0.785632 
127 1 -2.15845 6.23334 1.97186 
131 1 -2.34872 6.21806 11.0137 
138 1 1.37409 7.95722 0.814153 
142 1 -2.54291 8.79106 8.71636 
145 1 -4.46259 9.79884 7.50825 
151 1 -4.97277 10.4481 11.0342 
154 1 -2.97936 9.60342 9.84508 
155 1 -2.93525 6.27559 7.44151 
12 1 2.56452 7.07051 17.1507 
17 1 0.412396 9.32806 20.9169 
24 1 -3.62155 8.35611 11.8553 
27 1 -0.274289 7.23073 21.6274 
29 1 0.606977 5.96525 21.9558 
31 1 1.28252 7.16809 17.9129 
44 1 -0.159638 7.1935 20.1474 
46 1 0.137489 8.50569 19.7115 
51 1 -0.324895 7.24913 11.1699 
53 1 2.5606 7.07448 15.613 
56 1 1.28266 7.17814 14.8608 
63 1 -2.3354 6.22872 21.7499 
66 1 -3.38388 6.74016 20.8691 
70 1 -0.133954 7.16232 12.6214 
72 1 0.543968 5.91872 12.9484 
92 1 0.918428 8.4469 14.2472 
95 1 -4.97185 10.4461 21.7289 
98 1 -4.67503 9.27933 20.8455 
104 1 0.414329 9.33522 11.8617 
116 1 -2.62718 8.76252 21.8067 
118 1 -3.62097 8.35694 20.909 
122 1 0.143909 8.4987 13.0517 
133 1 -3.38667 6.73882 11.897 
136 1 0.319485 8.50465 22.096 
147 1 0.526787 5.93436 19.8573 
153 1 -4.67515 9.28159 11.9166 
160 1 0.919871 8.44549 18.5164 
1 1 7.85085 4.93175 10.5234 
4 1 9.15471 4.80268 11.0114 
20 1 7.83698 4.94165 9.06332 
42 1 9.45416 5.45146 7.4421 
67 1 9.96844 4.57519 0.768725 
77 1 7.85113 4.93205 0.0897853 
94 1 7.83832 4.94186 1.55016 
96 1 9.17095 4.67689 1.99494 
121 1 4.6822 5.48435 10.6819 
130 1 9.45351 5.4512 3.17143 
134 1 9.96649 4.57329 9.84442 
152 1 9.17035 4.67623 8.61829 
45 1 4.65488 5.49381 22.0709 
55 1 4.82142 5.51561 13.0687 
106 1 9.15553 4.8041 21.7526 
137 1 4.81724 5.51509 19.6991 
2 1 7.25878 10.5009 9.04684 
3 1 8.97299 7.64672 6.0745 
6 1 8.51242 6.3916 6.81779 
16 1 2.36073 8.69121 0.850931 
22 1 7.11099 6.18392 8.71019 
26 1 7.1973 8.42109 7.54199 
35 1 7.24063 10.5286 10.488 
37 1 6.88145 9.23384 10.9947 
39 1 8.28136 8.92934 6.75938 
41 1 6.71627 6.9949 9.83634 
48 1 3.70046 6.35071 0.825575 
61 1 7.25742 10.5017 1.56813 
62 1 8.97225 7.64807 4.53849 
64 1 6.71632 9.21174 1.98947 
68 1 7.39015 6.96284 3.06038 
71 1 4.31184 8.52108 10.7688 
74 1 3.59906 7.79022 9.81971 
81 1 8.5124 6.39187 3.79538 
83 1 6.5451 8.42366 0.788797 
93 1 7.24126 10.5277 0.124428 
97 1 8.2819 8.92746 3.85378 
101 1 2.40197 9.89529 10.6498 
103 1 2.44596 8.70313 9.78772 
117 1 7.11094 6.18487 1.90407 
120 1 7.19459 8.41981 3.07336 
123 1 3.71025 6.31852 9.85112 
129 1 6.71815 6.99469 0.777114 
132 1 6.71719 9.21344 8.62612 
135 1 7.39103 6.96216 7.55487 
141 1 7.22253 6.19972 10.9355 
144 1 6.54372 8.42362 9.82367 
148 1 3.59686 7.79816 0.801285 
7 1 9.16879 6.02709 11.9314 
10 1 3.68308 9.79085 21.5985 
13 1 2.3806 9.9152 22.0896 
15 1 3.01883 8.3279 17.8913 
28 1 3.69539 9.7833 20.1386 
30 1 4.42366 8.53942 19.7841 
34 1 4.33759 6.30592 18.616 
40 1 7.83279 8.37059 11.9036 
49 1 4.8177 7.73007 20.9112 
50 1 2.0798 9.26984 18.517 
58 1 1.57376 10.1375 11.8359 
59 1 4.14418 7.76557 14.1374 
69 1 3.71537 9.78312 11.1695 
73 1 3.01647 8.33313 14.8713 
75 1 4.98795 6.30079 11.8746 
79 1 7.22209 6.19944 21.8284 
82 1 7.93789 6.92697 20.8893 
86 1 3.70028 9.78588 12.6266 
88 1 2.35839 10.0448 13.0623 
108 1 9.17221 6.02869 20.8337 
112 1 4.42623 8.54339 12.9836 
115 1 4.33883 6.30633 14.1498 
124 1 4.82702 7.72692 11.8594 
125 1 2.08235 9.27266 14.2429 
126 1 6.88149 9.23464 21.7701 
128 1 7.83289 8.37006 20.8601 
139 1 1.56904 10.1515 20.9207 
140 1 4.14335 7.76179 18.6282 
143 1 7.9375 6.92619 11.8753 
146 1 4.31444 8.52584 22.0112 
149 1 4.99038 6.30207 20.8995 
157 1 2.36307 10.0459 19.693 
ITEM: TIMESTEP
40
ITEM: NUMBER OF ATOMS
161
ITEM: BOX BOUNDS xy xz yz pp pp pp
-6.7755000000000001e+00 1.3552000000000000e+01 -6.7755000000000001e+00
0.0000000000000000e+00 1.1735510246683001e+01 0.0000000000000000e+00
0.0000000000000000e+00 2.2149999999999999e+01 0.0000000000000000e+00
ITEM: ATOMS id type x y z 
8 1 -2.45567 5.43813 9.82403 
87 1 2.97636 4.33661 10.6961 
90 1 2.71948 5.56244 9.66651 
109 1 -2.45139 5.4459 0.785198 
158 1 2.61964 5.45345 0.840774 
161 2 2.75658 5.37784 8.57279 
11 1 4.26989 4.26337 20.1064 
14 1 2.87514 4.1657 19.709 
18 1 1.29351 5.86405 18.6081 
33 1 2.09191 4.21758 20.9067 
43 1 4.27391 4.2668 21.5431 
47 1 3.23402 5.8045 17.8223 
52 1 4.26971 4.25039 12.6824 
76 1 2.42396 4.93244 14.1938 
85 1 4.26388 4.25071 11.2347 
89 1 3.23429 5.80772 14.943 
91 1 0.948781 5.11796 11.841 
102 1 2.88305 4.16361 13.0678 
105 1 1.28083 5.84547 14.1897 
114 1 2.09412 4.26832 11.8456 
150 1 2.40954 4.94672 18.585 
156 1 2.95178 4.29216 22.1259 
159 1 0.943542 5.04098 20.9289 
5 1 -4.87829 10.5491 8.63764 
9 1 -3.29444 8.87981 7.48226 
19 1 -1.78938 7.55962 10.5715 
21 1 -2.61673 8.77357 10.984 
23 1 -3.29754 7.54081 6.81545 
25 1 -4.09008 10.4382 9.82885 
32 1 1.59467 6.4023 0.75473 
36 1 -1.86009 7.58955 9.05702 
38 1 -2.15165 6.26922 8.63845 
54 1 0.283909 8.491 10.6827 
57 1 1.25542 7.96337 9.74686 
60 1 -1.77558 7.56207 0.0456 
65 1 -3.2964 7.5425 3.79741 
78 1 -1.85501 7.59287 1.55462 
80 1 -2.51502 8.80673 1.91425 
84 1 -4.43718 9.78525 3.11575 
99 1 -2.95051 9.58442 0.761202 
100 1 -2.93779 6.2951 3.16542 
107 1 -4.87748 10.5505 1.97498 
110 1 -3.29405 8.87774 3.12564 
111 1 0.643636 5.92467 10.6657 
113 1 1.36686 6.44977 9.84043 
119 1 -4.08726 10.4369 0.784526 
127 1 -2.15129 6.26945 1.97294 
131 1 -2.3734 6.23444 11.0104 
138 1 1.39025 7.94362 0.81024 
142 1 -2.51159 8.8045 8.7041 
145 1 -4.43786 9.78321 7.49826 
151 1 -4.95734 10.4253 11.0384 
154 1 -2.95334 9.58893 9.85388 
155 1 -2.93775 6.29738 7.44533 
12 1 2.56562 7.06401 17.1495 
17 1 0.435592 9.29578 20.9115 
24 1 -3.61623 8.33964 11.8807 
27 1 -0.280801 7.21483 21.628 
29 1 0.582676 5.95893 21.9559 
31 1 1.27974 7.17109 17.912 
44 1 -0.199891 7.17305 20.1436 
46 1 0.126003 8.47818 19.7133 
51 1 -0.341137 7.24091 11.1738 
53 1 2.56705 7.07268 15.6152 
56 1 1.28019 7.17659 14.8674 
63 1 -2.35067 6.25356 21.7532 
66 1 -3.40001 6.74799 20.8642 
70 1 -0.162102 7.13615 12.6288 
72 1 0.528132 5.90952 12.9546 
92 1 0.921274 8.43104 14.2449 
95 1 -4.95741 10.4243 21.7247 
98 1 -4.65223 9.28462 20.8256 
104 1 0.440559 9.30121 11.8712 
116 1 -2.60831 8.76642 21.7801 
118 1 -3.616 8.33579 20.8863 
122 1 0.139725 8.4697 13.057 
133 1 -3.4081 6.74449 11.9039 
136 1 0.332369 8.48631 22.0946 
147 1 0.498291 5.92555 19.8578 
153 1 -4.65439 9.2842 11.9386 
160 1 0.9195 8.43202 18.5231 
1 1 7.79089 4.93265 10.5266 
4 1 9.11214 4.83121 10.9917 
20 1 7.78712 4.94582 9.06164 
42 1 9.43756 5.47499 7.44711 
67 1 9.94342 4.61414 0.783907 
77 1 7.79178 4.9312 0.0864583 
94 1 7.78907 4.9467 1.5518 
96 1 9.12786 4.70914 1.99726 
121 1 4.68338 5.52674 10.6776 
130 1 9.43569 5.47545 3.1655 
134 1 9.93857 4.60868 9.82908 
152 1 9.12646 4.70643 8.61403 
45 1 4.63167 5.54115 22.0882 
55 1 4.81821 5.546 13.0745 
106 1 9.11606 4.83573 21.7722 
137 1 4.81596 5.55477 19.6959 
2 1 7.27655 10.4626 9.03419 
3 1 8.96283 7.65195 6.07265 
6 1 8.50442 6.39573 6.80267 
16 1 2.37736 8.69473 0.867832 
22 1 7.06119 6.16868 8.68897 
26 1 7.20237 8.39653 7.52452 
35 1 7.26608 10.4671 10.4636 
37 1 6.90545 9.18883 11.0102 
39 1 8.29764 8.91831 6.74488 
41 1 6.68398 6.96829 9.83822 
48 1 3.687 6.35557 0.847879 
61 1 7.27456 10.4606 1.58148 
62 1 8.96394 7.64875 4.54033 
64 1 6.71912 9.17392 1.9932 
68 1 7.36817 6.95199 3.06908 
71 1 4.34049 8.51541 10.7501 
74 1 3.61443 7.79299 9.79869 
81 1 8.50275 6.39581 3.80943 
83 1 6.54353 8.38684 0.798276 
93 1 7.26703 10.4649 0.149574 
97 1 8.29667 8.91675 3.86576 
101 1 2.4539 9.86166 10.6676 
103 1 2.4493 8.69234 9.78191 
117 1 7.06065 6.16941 1.92388 
120 1 7.20475 8.3989 3.08975 
123 1 3.69511 6.33199 9.85641 
129 1 6.68586 6.96755 0.775336 
132 1 6.71777 9.1761 8.61965 
135 1 7.36792 6.95218 7.54603 
141 1 7.20257 6.20686 10.9614 
144 1 6.53787 8.38902 9.81963 
148 1 3.60043 7.81489 0.832343 
7 1 9.15228 6.01762 11.9551 
10 1 3.74309 9.79065 21.6016 
13 1 2.42037 9.8825 22.0753 
15 1 3.02636 8.32231 17.8808 
28 1 3.74542 9.77861 20.1353 
30 1 4.47477 8.55599 19.763 
34 1 4.32926 6.32645 18.5979 
40 1 7.839 8.37001 11.9261 
49 1 4.85061 7.75836 20.9113 
50 1 2.09737 9.24868 18.523 
58 1 1.60681 10.0932 11.8422 
59 1 4.16641 7.77922 14.1488 
69 1 3.78755 9.79256 11.1706 
73 1 3.02538 8.33095 14.8843 
75 1 5.00186 6.33031 11.8841 
79 1 7.20302 6.2077 21.8026 
82 1 7.93564 6.91234 20.8616 
86 1 3.75614 9.78109 12.6284 
88 1 2.40386 10.0099 13.0589 
108 1 9.15855 6.02087 20.8131 
112 1 4.47859 8.55508 13.0071 
115 1 4.32998 6.3287 14.171 
124 1 4.86084 7.75271 11.8601 
125 1 2.09891 9.25217 14.2357 
126 1 6.90875 9.18881 21.7535 
128 1 7.84031 8.36909 20.8387 
139 1 1.5972 10.1153 20.907 
140 1 4.16478 7.77284 18.6182 
143 1 7.93232 6.91351 11.9037 
146 1 4.33784 8.52048 22.0362 
149 1 4.99298 6.33947 20.8923 
157 1 2.40823 10.0143 19.6914 
ITEM: TIMESTEP
50
ITEM: NUMBER OF ATOMS
161
ITEM: BOX BOUNDS xy xz yz pp pp pp
-6.7755000000000001e+00 1.3552000000000000e+01 -6.7755000000000001e+00
0.0000000000000000e+00 1.1735510246683001e+01 0.0000000000000000e+00
0.0000000000000000e+00 2.2149999999999999e+01 0.0000000000000000e+00
ITEM: ATOMS id type x y z 
8 1 -2.46457 5.44823 9.82187 
87 1 2.97165 4.3499 10.6935 
90 1 2.71332 5.57052 9.65403 
109 1 -2.45935 5.45535 0.787339 
158 1 2.61651 5.46169 0.850012 
161 2 2.75286 5.36361 8.56342 
11 1 4.2628 4.27644 20.1003 
14 1 2.87176 4.16871 19.7075 
18 1 1.29013 5.86798 18.6076 
33 1 2.08743 4.21821 20.9127 
43 1 4.26881 4.27635 21.5395 
47 1 3.23115 5.79834 17.8271 
52 1 4.26214 4.26568 12.6831 
76 1 2.41598 4.92773 14.1936 
85 1 4.25794 4.26094 11.2405 
89 1 3.23423 5.79937 14.9396 
91 1 0.941235 5.1205 11.8351 
102 1 2.87553 4.16924 13.0701 
105 1 1.27925 5.84713 14.196 
114 1 2.08748 4.27792 11.8408 
150 1 2.40215 4.94349 18.5865 
156 1 2.95017 4.30124 22.1254 
159 1 0.932021 5.03618 20.9279 
5 1 -4.87258 10.5424 8.63683 
9 1 -3.28877 8.87856 7.48012 
19 1 -1.7891 7.56217 10.5697 
21 1 -2.61444 8.77551 10.9881 
23 1 -3.2965 7.5394 6.81231 
25 1 -4.08508 10.4335 9.83278 
32 1 1.58601 6.39694 0.757424 
36 1 -1.85251 7.59895 9.05716 
38 1 -2.1477 6.27562 8.63988 
54 1 0.288527 8.48636 10.6821 
57 1 1.25428 7.9626 9.7452 
60 1 -1.77164 7.56888 0.0493683 
65 1 -3.29936 7.53529 3.79941 
78 1 -1.8433 7.60015 1.55362 
80 1 -2.5009 8.81466 1.9121 
84 1 -4.43213 9.79254 3.11746 
99 1 -2.94258 9.58723 0.757678 
100 1 -2.93576 6.29233 3.16589 
107 1 -4.87148 10.5436 1.97728 
110 1 -3.29062 8.87714 3.13726 
111 1 0.637501 5.92663 10.657 
113 1 1.36286 6.44585 9.82894 
119 1 -4.08241 10.4311 0.779068 
127 1 -2.14622 6.27575 1.97233 
131 1 -2.3833 6.2416 11.0104 
138 1 1.39253 7.9478 0.811768 
142 1 -2.50389 8.8119 8.70122 
145 1 -4.43041 9.79059 7.49668 
151 1 -4.95414 10.4152 11.0402 
154 1 -2.943 9.58807 9.85365 
155 1 -2.93531 6.29034 7.44794 
12 1 2.56753 7.05831 17.1511 
17 1 0.442249 9.28554 20.9111 
24 1 -3.60836 8.34341 11.8903 
27 1 -0.284169 7.21297 21.6241 
29 1 0.575072 5.95425 21.9568 
31 1 1.28 7.17192 17.9139 
44 1 -0.210347 7.16631 20.1423 
46 1 0.120869 8.47409 19.714 
51 1 -0.341072 7.23192 11.1746 
53 1 2.56715 7.06836 15.6183 
56 1 1.28319 7.17894 14.8672 
63 1 -2.35787 6.25825 21.751 
66 1 -3.40581 6.74525 20.8579 
70 1 -0.171681 7.13247 12.6284 
72 1 0.517986 5.90463 12.9557 
92 1 0.920245 8.43362 14.2458 
95 1 -4.95273 10.4139 21.7235 
98 1 -4.65093 9.2763 20.8141 
104 1 0.44786 9.2912 11.873 
116 1 -2.60442 8.77002 21.7767 
118 1 -3.60645 8.34134 20.8762 
122 1 0.136397 8.46475 13.0576 
133 1 -3.41385 6.74138 11.9087 
136 1 0.339348 8.47946 22.0939 
147 1 0.487395 5.91895 19.8604 
153 1 -4.65343 9.27684 11.9509 
160 1 0.916814 8.4373 18.5256 
1 1 7.77282 4.92342 10.5277 
4 1 9.10108 4.83788 10.9893 
20 1 7.77156 4.94743 9.0598 
42 1 9.43493 5.47715 7.44794 
67 1 9.93465 4.62789 0.783921 
77 1 7.77334 4.92064 0.0848636 
94 1 7.7728 4.94889 1.55301 
96 1 9.11245 4.71412 1.99682 
121 1 4.67721 5.53941 10.681 
130 1 9.43582 5.47635 3.16463 
134 1 9.92695 4.62097 9.82782 
152 1 9.11047 4.71235 8.6142 
45 1 4.62524 5.55068 22.0842 
55 1 4.8178 5.55669 13.0838 
106 1 9.10579 4.84249 21.7747 
137 1 4.81609 5.56414 19.6922 
2 1 7.28114 10.4466 9.02418 
3 1 8.95737 7.656 6.07182 
6 1 8.49991 6.39668 6.80785 
16 1 2.38288 8.69491 0.870162 
22 1 7.04266 6.16443 8.68538 
26 1 7.20149 8.39387 7.52223 
35 1 7.27306 10.4549 10.4611 
37 1 6.91126 9.18024 11.0047 
39 1 8.29944 8.92519 6.75293 
41 1 6.67637 6.96028 9.83804 
48 1 3.67806 6.3633 0.860816 
61 1 7.28157 10.448 1.58837 
62 1 8.96132 7.65531 4.54153 
64 1 6.72048 9.16514 1.9957 
68 1 7.3632 6.94318 3.07444 
71 1 4.35478 8.51577 10.7468 
74 1 3.61642 7.79716 9.79582 
81 1 8.49872 6.39613 3.80678 
83 1 6.54329 8.38323 0.793815 
93 1 7.27502 10.454 0.152422 
97 1 8.30213 8.92626 3.8611 
101 1 2.46568 9.85375 10.6702 
103 1 2.45271 8.68944 9.7786 
117 1 7.04373 6.16298 1.93007 
120 1 7.20108 8.39232 3.09444 
123 1 3.69238 6.33652 9.84709 
129 1 6.67553 6.95797 0.775587 
132 1 6.7222 9.16369 8.61893 
135 1 7.36503 6.94458 7.53836 
141 1 7.19261 6.21008 10.9615 
144 1 6.53836 8.38436 9.81908 
148 1 3.60811 7.81732 0.840508 
7 1 9.14424 6.01585 11.9586 
10 1 3.76161 9.79901 21.6026 
13 1 2.43262 9.87619 22.0726 
15 1 3.02996 8.32023 17.8825 
28 1 3.76265 9.77696 20.1349 
30 1 4.49168 8.56205 19.7566 
34 1 4.33107 6.33231 18.5923 
40 1 7.84758 8.36241 11.9397 
49 1 4.8612 7.76865 20.9116 
50 1 2.09865 9.24614 18.5242 
58 1 1.61977 10.0794 11.8425 
59 1 4.17164 7.7815 14.1573 
69 1 3.80774 9.80374 11.1678 
73 1 3.02934 8.33008 14.8831 
75 1 5.00901 6.33625 11.8854 
79 1 7.19278 6.20846 21.7998 
82 1 7.92938 6.91134 20.8533 
86 1 3.77193 9.78006 12.6297 