ITEM: TIMESTEP
0
ITEM: NUMBER OF ATOMS
145
ITEM: BOX BOUNDS pp pp pp
0.0000000000000000e+00 2.1884000000000000e+01
0.0000000000000000e+00 2.1885999999999999e+01
0.0000000000000000e+00 2.1885000000000002e+01
ITEM: ATOMS id type x y z 
9 1 8.524 12.547 12.547 
10 1 1.604 19.466 19.466 
11 1 1.605 19.466 12.547 
12 1 8.524 12.547 19.466 
13 1 1.605 12.547 19.466 
14 1 8.524 19.467 12.547 
15 1 8.524 19.467 19.466 
16 1 1.605 12.547 12.547 
25 1 10.105 10.965 10.965 
26 1 0.023 21.047 21.049 
27 1 0.023 21.047 10.964 
28 1 10.106 10.965 21.047 
29 1 0.023 10.966 21.048 
30 1 10.106 21.049 10.966 
31 1 10.106 21.048 21.049 
32 1 0.024 10.965 10.965 
57 1 5.811 12.218 12.218 
58 1 4.317 19.796 19.795 
59 1 4.318 19.795 12.218 
60 1 5.811 12.219 19.795 
61 1 4.318 12.218 19.795 
62 1 5.811 19.795 12.218 
63 1 5.811 19.796 19.795 
64 1 4.318 12.218 12.218 
65 1 8.853 15.26 12.218 
66 1 1.276 16.754 19.795 
67 1 8.853 16.754 19.795 
68 1 1.276 15.26 12.218 
69 1 1.276 16.754 12.218 
70 1 8.853 15.26 19.796 
71 1 1.276 15.26 19.795 
72 1 8.853 16.753 12.218 
73 1 8.853 12.219 15.26 
74 1 1.276 19.795 16.753 
75 1 1.276 12.218 16.754 
76 1 8.853 19.796 15.26 
77 1 8.853 19.796 16.753 
78 1 1.276 12.218 15.26 
79 1 1.276 19.795 15.26 
80 1 8.853 12.219 16.754 
105 1 7.01 12.317 12.317 
106 1 3.118 19.696 19.696 
107 1 3.119 19.696 12.317 
108 1 7.011 12.317 19.696 
109 1 3.119 12.317 19.696 
110 1 7.01 19.696 12.317 
111 1 7.01 19.697 19.696 
112 1 3.118 12.317 12.317 
113 1 8.754 14.061 12.317 
114 1 1.375 17.953 19.696 
115 1 8.754 17.953 19.696 
116 1 1.375 14.061 12.317 
117 1 1.375 17.953 12.317 
118 1 8.754 14.061 19.696 
119 1 1.375 14.061 19.696 
120 1 8.754 17.953 12.317 
121 1 8.754 12.317 14.061 
122 1 1.375 19.696 17.952 
123 1 1.375 12.317 17.953 
124 1 8.754 19.697 14.061 
125 1 8.754 19.697 17.952 
126 1 1.375 12.317 14.061 
127 1 1.375 19.696 14.061 
128 1 8.754 12.318 17.953 
137 1 9.407 11.664 11.664 
138 1 0.721 20.349 20.35 
139 1 0.721 20.349 11.663 
140 1 9.408 11.664 20.349 
141 1 0.721 11.664 20.35 
142 1 9.407 20.35 11.664 
143 1 9.407 20.35 20.35 
144 1 0.722 11.664 11.663 
1 1 19.466 1.604 1.604 
2 1 12.547 8.524 8.524 
3 1 12.546 8.524 1.604 
4 1 19.466 1.605 8.524 
5 1 12.547 1.604 8.524 
6 1 19.466 8.524 1.605 
7 1 19.466 8.524 8.524 
8 1 12.547 1.604 1.605 
17 1 21.048 0.023 0.022 
18 1 10.965 10.106 10.106 
19 1 10.965 10.106 0.024 
20 1 21.048 0.024 10.107 
21 1 10.965 0.022 10.105 
22 1 21.048 10.105 0.023 
23 1 21.047 10.106 10.106 
24 1 10.965 0.023 0.022 
33 1 16.753 1.275 1.276 
34 1 15.26 8.853 8.853 
35 1 15.26 8.852 1.276 
36 1 16.753 1.275 8.853 
37 1 15.26 1.275 8.853 
38 1 16.753 8.852 1.276 
39 1 16.753 8.853 8.853 
40 1 15.26 1.275 1.276 
41 1 19.795 4.317 1.276 
42 1 12.218 5.811 8.853 
43 1 19.795 5.811 8.853 
44 1 12.218 4.317 1.276 
45 1 12.218 5.811 1.275 
46 1 19.795 4.317 8.853 
47 1 12.218 4.317 8.853 
48 1 19.795 5.811 1.276 
49 1 19.795 1.275 4.317 
50 1 12.218 8.852 5.811 
51 1 12.218 1.276 5.811 
52 1 19.795 8.853 4.318 
53 1 19.795 8.853 5.811 
54 1 12.218 1.275 4.318 
55 1 12.218 8.852 4.317 
56 1 19.795 1.275 5.811 
81 1 17.952 1.374 1.375 
82 1 14.061 8.754 8.754 
83 1 14.06 8.753 1.375 
84 1 17.952 1.374 8.754 
85 1 14.06 1.374 8.754 
86 1 17.952 8.754 1.375 
87 1 17.952 8.754 8.754 
88 1 14.061 1.374 1.375 
89 1 19.696 3.118 1.375 
90 1 12.317 7.01 8.754 
91 1 19.696 7.01 8.754 
92 1 12.317 3.118 1.375 
93 1 12.317 7.01 1.374 
94 1 19.695 3.118 8.754 
95 1 12.317 3.118 8.754 
96 1 19.696 7.01 1.375 
97 1 19.696 1.374 3.118 
98 1 12.317 8.754 7.01 
99 1 12.317 1.375 7.01 
100 1 19.696 8.754 3.118 
101 1 19.696 8.754 7.01 
102 1 12.317 1.374 3.119 
103 1 12.317 8.753 3.118 
104 1 19.696 1.374 7.01 
129 1 20.35 0.722 0.721 
130 1 11.664 9.407 9.407 
131 1 11.663 9.407 0.722 
132 1 20.35 0.722 9.408 
133 1 11.663 0.72 9.407 
134 1 20.35 9.407 0.721 
135 1 20.349 9.407 9.407 
136 1 11.664 0.721 0.721 
145 2 20.566 1.604 1.604 
ITEM: TIMESTEP
10
ITEM: NUMBER OF ATOMS
145
ITEM: BOX BOUNDS pp pp pp
0.0000000000000000e+00 2.1884000000000000e+01
0.0000000000000000e+00 2.1885999999999999e+01
0.0000000000000000e+00 2.1885000000000002e+01
ITEM: ATOMS id type x y z 
9 1 8.51322 12.5575 12.5573 
10 1 1.60489 19.4668 19.4657 
11 1 1.61566 19.4569 12.5568 
12 1 8.51354 12.5578 19.4562 
13 1 1.61539 12.5573 19.4568 
14 1 8.51477 19.4558 12.5576 
15 1 8.51427 19.4569 19.4561 
16 1 1.61495 12.5573 12.5572 
25 1 10.1069 10.9633 10.9632 
26 1 0.0296531 21.0396 21.0426 
27 1 0.0217338 21.0486 10.9628 
28 1 10.1077 10.9636 21.0486 
29 1 0.0218063 10.9644 21.0492 
30 1 10.1071 21.0502 10.9646 
31 1 10.1072 21.0493 21.05 
32 1 0.0223034 10.9636 10.9632 
57 1 5.81552 12.2202 12.2202 
58 1 4.31301 19.7936 19.793 
59 1 4.31444 19.7929 12.22 
60 1 5.81666 12.2208 19.7927 
61 1 4.31407 12.2202 19.7929 
62 1 5.81312 19.793 12.2199 
63 1 5.8132 19.7941 19.7931 
64 1 4.31372 12.2201 12.2201 
65 1 8.85081 15.2552 12.2202 
66 1 1.27795 16.756 19.7931 
67 1 8.851 16.7558 19.7932 
68 1 1.27798 15.258 12.22 
69 1 1.27792 16.755 12.2199 
70 1 8.85096 15.2556 19.7935 
71 1 1.27788 15.2569 19.793 
72 1 8.85063 16.7601 12.2204 
73 1 8.85081 12.2209 15.2565 
74 1 1.278 19.793 16.7564 
75 1 1.27789 12.2199 16.7549 
76 1 8.85091 19.7939 15.2563 
77 1 8.85106 19.7941 16.7551 
78 1 1.27801 12.22 15.2577 
79 1 1.27803 19.7929 15.2552 
80 1 8.85092 12.2212 16.7577 
105 1 7.00291 12.3167 12.3168 
106 1 3.12789 19.6971 19.6968 
107 1 3.12539 19.6964 12.3166 
108 1 7.0029 12.3169 19.6966 
109 1 3.1258 12.3165 19.6965 
110 1 7.00435 19.6967 12.3166 
111 1 7.0049 19.6974 19.6963 
112 1 3.12585 12.3165 12.3165 
113 1 8.75433 14.0685 12.3167 
114 1 1.3741 17.9449 19.6967 
115 1 8.75439 17.9476 19.6963 
116 1 1.37472 14.0664 12.3168 
117 1 1.37453 17.947 12.3165 
118 1 8.75424 14.0684 19.6967 
119 1 1.37469 14.0659 19.6963 
120 1 8.75462 17.9431 12.3165 
121 1 8.75434 12.317 14.0675 
122 1 1.37403 19.6968 17.9435 
123 1 1.37449 12.3166 17.9474 
124 1 8.75429 19.6973 14.0675 
125 1 8.75429 19.6973 17.9468 
126 1 1.37471 12.3168 14.0664 
127 1 1.3745 19.6966 14.0677 
128 1 8.75453 12.3174 17.9452 
137 1 9.41126 11.6597 11.66 
138 1 0.735014 20.3345 20.3368 
139 1 0.716949 20.3531 11.6593 
140 1 9.41252 11.659 20.3542 
141 1 0.716846 11.66 20.3543 
142 1 9.41176 20.355 11.659 
143 1 9.41076 20.3539 20.3536 
144 1 0.717402 11.6594 11.6591 
1 1 19.3985 1.63694 1.64137 
2 1 12.5567 8.51375 8.51345 
3 1 12.557 8.51299 1.61388 
4 1 19.4553 1.61449 8.51938 
5 1 12.5569 1.61419 8.51396 
6 1 19.4555 8.51928 1.61487 
7 1 19.456 8.51406 8.51382 
8 1 12.5511 1.61391 1.61459 
17 1 21.095 -0.0437077 -0.0397448 
18 1 10.9634 10.1076 10.1072 
19 1 10.9632 10.1079 0.0219428 
20 1 21.0503 0.0213089 10.1087 
21 1 10.9636 0.0205145 10.1068 
22 1 21.0504 10.1071 0.0205354 
23 1 21.0487 10.1076 10.1074 
24 1 10.9626 0.0199553 0.0192884 
33 1 16.7091 1.26782 1.26862 
34 1 15.2571 8.85099 8.85098 
35 1 15.2542 8.84982 1.27818 
36 1 16.7553 1.27675 8.85105 
37 1 15.2551 1.27709 8.85096 
38 1 16.7557 8.85024 1.27791 
39 1 16.7544 8.8511 8.85113 
40 1 15.2316 1.27367 1.27471 
41 1 19.802 4.35855 1.26889 
42 1 12.2201 5.814 8.85091 
43 1 19.7932 5.81207 8.85119 
44 1 12.2199 4.31653 1.27756 
45 1 12.2201 5.81551 1.27722 
46 1 19.793 4.31592 8.85121 
47 1 12.22 4.315 8.85102 
48 1 19.7962 5.83958 1.27497 
49 1 19.8022 1.26787 4.35866 
50 1 12.2201 8.8502 5.81352 
51 1 12.2199 1.27791 5.81459 
52 1 19.7932 8.85109 4.31597 
53 1 19.793 8.85103 5.8145 
54 1 12.2198 1.27682 4.31693 
55 1 12.2199 8.84999 4.31571 
56 1 19.7964 1.27368 5.83832 
81 1 17.9085 1.35775 1.35894 
82 1 14.0672 8.75442 8.7544 
83 1 14.0676 8.75359 1.3743 
84 1 17.9435 1.37331 8.75507 
85 1 14.0672 1.37353 8.75446 
86 1 17.9431 8.75481 1.37401 
87 1 17.9471 8.75424 8.75432 
88 1 14.0383 1.37536 1.37633 
89 1 19.6946 3.16272 1.36129 
90 1 12.3167 7.00371 8.75423 
91 1 19.6962 7.00588 8.75423 
92 1 12.3159 3.12622 1.37397 
93 1 12.3165 7.00347 1.37367 
94 1 19.6962 3.12686 8.75488 
95 1 12.3166 3.12373 8.75427 
96 1 19.695 7.03028 1.37596 
97 1 19.6949 1.35967 3.16398 
98 1 12.3167 8.75395 7.00442 
99 1 12.3166 1.37468 7.00445 
100 1 19.697 8.75516 3.12725 
101 1 19.6964 8.75439 7.00402 
102 1 12.3159 1.37281 3.12736 
103 1 12.3164 8.75342 3.12352 
104 1 19.6948 1.37549 7.0332 
129 1 20.4063 0.701759 0.685997 
130 1 11.6598 9.41104 9.41167 
131 1 11.6583 9.41153 0.717127 
132 1 20.3551 0.716786 9.41362 
133 1 11.6584 0.715584 9.41135 
134 1 20.3552 9.41301 0.715714 
135 1 20.3536 9.4114 9.4117 
136 1 11.6585 0.716341 0.716563 
145 2 20.6404 1.58629 1.58608 
ITEM: TIMESTEP
20
ITEM: NUMBER OF ATOMS
145
ITEM: BOX BOUNDS pp pp pp
0.0000000000000000e+00 2.1884000000000000e+01
0.0000000000000000e+00 2.1885999999999999e+01
0.0000000000000000e+00 2.1885000000000002e+01
ITEM: ATOMS id type x y z 
9 1 8.51057 12.5601 12.5602 
10 1 1.60998 19.4613 19.4609 
11 1 1.61863 19.4535 12.559 
12 1 8.51103 12.5607 19.4533 
13 1 1.61819 12.5596 19.4534 
14 1 8.51135 19.4534 12.5606 
15 1 8.51175 19.4537 19.4529 
16 1 1.61778 12.5605 12.5605 
25 1 10.1058 10.9645 10.9643 
26 1 0.0364492 21.0303 21.0363 
27 1 0.0231303 21.0473 10.9643 
28 1 10.107 10.9643 21.0481 
29 1 0.022994 10.9654 21.048 
30 1 10.1064 21.0495 10.9651 
31 1 10.1056 21.0479 21.0484 
32 1 0.0230957 10.9645 10.9641 
57 1 5.81622 12.2206 12.2206 
58 1 4.31255 19.7934 19.7928 
59 1 4.31283 19.7925 12.2205 
60 1 5.81664 12.2211 19.7923 
61 1 4.31318 12.2207 19.7925 
62 1 5.81625 19.7924 12.2205 
63 1 5.81816 19.7937 19.7926 
64 1 4.31264 12.2206 12.2206 
65 1 8.85042 15.2548 12.2206 
66 1 1.27832 16.7582 19.7928 
67 1 8.85038 16.7587 19.7926 
68 1 1.2786 15.2549 12.2206 
69 1 1.27849 16.7581 12.2205 
70 1 8.85052 15.2551 19.7929 
71 1 1.2783 15.2528 19.7926 
72 1 8.85039 16.7587 12.2206 
73 1 8.85033 12.2213 15.2549 
74 1 1.27827 19.7927 16.7579 
75 1 1.2785 12.2205 16.7581 
76 1 8.8504 19.7934 15.2546 
77 1 8.85043 19.7935 16.7581 
78 1 1.27863 12.2206 15.2548 
79 1 1.27828 19.7927 15.2525 
80 1 8.85047 12.2216 16.7585 
105 1 7.00528 12.3177 12.3177 
106 1 3.12554 19.6967 19.6962 
107 1 3.12355 19.6956 12.3176 
108 1 7.00567 12.318 19.6956 
109 1 3.1239 12.3174 19.6958 
110 1 7.00511 19.6959 12.3175 
111 1 7.00674 19.6966 19.6955 
112 1 3.12349 12.3175 12.3175 
113 1 8.75334 14.0658 12.3176 
114 1 1.3745 17.9452 19.6964 
115 1 8.75365 17.9476 19.6956 
116 1 1.37558 14.0656 12.3177 
117 1 1.37532 17.9472 12.3172 
118 1 8.75327 14.0661 19.6958 
119 1 1.3756 14.0638 19.6955 
120 1 8.75362 17.9476 12.3177 
121 1 8.75339 12.3179 14.0658 
122 1 1.37451 19.6964 17.945 
123 1 1.3752 12.3173 17.9473 
124 1 8.75346 19.6963 14.0657 
125 1 8.75353 19.6965 17.9471 
126 1 1.37558 12.3177 14.0656 
127 1 1.37558 19.6957 14.0636 
128 1 8.75361 12.3183 17.9475 
137 1 9.41139 11.6595 11.6598 
138 1 0.744056 20.3259 20.3277 
139 1 0.717942 20.3524 11.6603 
140 1 9.41171 11.6598 20.3533 
141 1 0.718239 11.6614 20.3531 
142 1 9.41107 20.3541 11.6599 
143 1 9.41025 20.3533 20.3531 
144 1 0.717793 11.6597 11.6595 
1 1 19.3921 1.64656 1.65124 
2 1 12.5599 8.51064 8.5105 
3 1 12.5596 8.51019 1.61716 
4 1 19.4525 1.61765 8.52386 
5 1 12.5596 1.61727 8.51096 
6 1 19.4527 8.52376 1.61795 
7 1 19.4528 8.5108 8.51083 
8 1 12.5471 1.61716 1.61788 
17 1 21.0913 -0.0465875 -0.0449275 
18 1 10.9645 10.1064 10.1061 
19 1 10.964 10.1071 0.0226673 
20 1 21.0508 0.0206853 10.1088 
21 1 10.9641 0.0211026 10.1063 
22 1 21.051 10.1075 0.0198539 
23 1 21.048 10.1068 10.1065 
24 1 10.9629 0.019866 0.0194573 
33 1 16.6979 1.26381 1.26452 
34 1 15.2546 8.85045 8.85047 
35 1 15.2531 8.8496 1.27846 
36 1 16.754 1.27666 8.85083 
37 1 15.2533 1.2774 8.85067 
38 1 16.7539 8.85008 1.27779 
39 1 16.758 8.85049 8.85048 
40 1 15.219 1.27206 1.27311 
41 1 19.8046 4.36457 1.26485 
42 1 12.2206 5.81601 8.85037 
43 1 19.7926 5.81724 8.85065 
44 1 12.2203 4.31632 1.27753 
45 1 12.2203 5.81744 1.27758 
46 1 19.793 4.31653 8.85095 
47 1 12.2206 4.31249 8.85043 
48 1 19.7981 5.84919 1.27347 
49 1 19.805 1.2637 4.36661 
50 1 12.2207 8.84966 5.81601 
51 1 12.2203 1.27828 5.81784 
52 1 19.7933 8.85085 4.3167 
53 1 19.7926 8.85068 5.81755 
54 1 12.2201 1.2768 4.31682 
55 1 12.2205 8.84937 4.31278 
56 1 19.7982 1.27235 5.84987 
81 1 17.8957 1.35176 1.35313 
82 1 14.0655 8.75349 8.75347 
83 1 14.0636 8.75252 1.3752 
84 1 17.9441 1.37364 8.75512 
85 1 14.0637 1.37453 8.75345 
86 1 17.944 8.75486 1.37431 
87 1 17.9472 8.75357 8.7535 
88 1 14.0247 1.37633 1.37729 
89 1 19.6927 3.17206 1.35931 
90 1 12.3176 7.00518 8.75327 
91 1 19.6954 7.00674 8.75338 
92 1 12.3158 3.12681 1.37422 
93 1 12.3175 7.00696 1.37463 
94 1 19.6959 3.12656 8.75495 
95 1 12.3174 3.12339 8.7535 
96 1 19.6941 7.04337 1.37679 
97 1 19.6931 1.35723 3.17354 
98 1 12.3175 8.753 7.00538 
99 1 12.3176 1.37565 7.00739 
100 1 19.6966 8.75527 3.12683 
101 1 19.6954 8.75342 7.00713 
102 1 12.3158 1.3731 3.12728 
103 1 12.317 8.7527 3.1237 
104 1 19.694 1.37623 7.04461 
129 1 20.4291 0.69828 0.679369 
130 1 11.6596 9.41113 9.4117 
131 1 11.6588 9.41111 0.717365 
132 1 20.3553 0.716439 9.4143 
133 1 11.6591 0.716213 9.41077 
134 1 20.3551 9.41328 0.715832 
135 1 20.3534 9.41124 9.41147 
136 1 11.657 0.715209 0.715358 
145 2 20.6615 1.5771 1.57634 
ITEM: TIMESTEP
30
ITEM: NUMBER OF ATOMS
145
ITEM: BOX BOUNDS pp pp pp
0.0000000000000000e+00 2.1884000000000000e+01
0.0000000000000000e+00 2.1885999999999999e+01
0.0000000000000000e+00 2.1885000000000002e+01
ITEM: ATOMS id type x y z 
9 1 8.50853 12.5634 12.5635 
10 1 1.63898 19.434 19.4315 
11 1 1.62012 19.4483 12.5575 
12 1 8.50844 12.5632 19.45 
13 1 1.62216 12.5564 19.4486 
14 1 8.50637 19.4503 12.562 
15 1 8.51314 19.4493 19.4488 
16 1 1.62162 12.5625 12.5626 
25 1 10.1038 10.9676 10.9677 
26 1 0.0468367 21.0104 21.0211 
27 1 0.0284857 21.0421 10.9711 
28 1 10.1031 10.9682 21.045 
29 1 0.0290735 10.9719 21.0426 
30 1 10.1026 21.0459 10.9677 
31 1 10.0987 21.0425 21.0419 
32 1 0.0262739 10.9678 10.9677 
57 1 5.81532 12.2221 12.2221 
58 1 4.32426 19.7938 19.7931 
59 1 4.31532 19.7914 12.222 
60 1 5.81601 12.2224 19.7909 
61 1 4.31525 12.2222 19.7913 
62 1 5.81624 19.7911 12.222 
63 1 5.82124 19.7931 19.7921 
64 1 4.3135 12.2221 12.222 
65 1 8.84882 15.256 12.2221 
66 1 1.27793 16.7479 19.7929 
67 1 8.84901 16.7569 19.7914 
68 1 1.28003 15.2552 12.2219 
69 1 1.27954 16.7561 12.2219 
70 1 8.84892 15.2557 19.7914 
71 1 1.2789 15.2503 19.7922 
72 1 8.84894 16.7573 12.2222 
73 1 8.84891 12.2229 15.2557 
74 1 1.2778 19.793 16.7465 
75 1 1.27957 12.222 16.7565 
76 1 8.84898 19.792 15.2551 
77 1 8.84891 19.7923 16.7563 
78 1 1.28006 12.222 15.2552 
79 1 1.27887 19.7922 15.2496 
80 1 8.84891 12.223 16.7576 
105 1 7.00451 12.321 12.321 
106 1 3.13407 19.6956 19.6952 
107 1 3.12624 19.6927 12.32 
108 1 7.00552 12.3214 19.6922 
109 1 3.12565 12.3202 19.6927 
110 1 7.00662 19.6921 12.3211 
111 1 7.01057 19.6938 19.6926 
112 1 3.12393 12.321 12.321 
113 1 8.74997 14.0665 12.3209 
114 1 1.37603 17.9368 19.695 
115 1 8.75072 17.9465 19.6923 
116 1 1.37886 14.0656 12.3211 
117 1 1.37867 17.9462 12.3201 
118 1 8.75012 14.0662 19.6926 
119 1 1.37812 14.0613 19.693 
120 1 8.75025 17.9472 12.321 
121 1 8.74994 12.3213 14.0661 
122 1 1.37572 19.6954 17.9366 
123 1 1.37858 12.3202 17.9462 
124 1 8.75027 19.6929 14.066 
125 1 8.75083 19.6932 17.9458 
126 1 1.37886 12.3211 14.0657 
127 1 1.37844 19.6929 14.0603 
128 1 8.75026 12.3218 17.9473 
137 1 9.40832 11.6612 11.6609 
138 1 0.755519 20.3068 20.3191 
139 1 0.724684 20.3476 11.6644 
140 1 9.4093 11.6622 20.3508 
141 1 0.72382 11.6656 20.3472 
142 1 9.4098 20.352 11.6633 
143 1 9.40555 20.3468 20.347 
144 1 0.719822 11.6623 11.6618 
1 1 19.3913 1.67578 1.68052 
2 1 12.5636 8.50766 8.50906 
3 1 12.5604 8.5114 1.62145 
4 1 19.4486 1.62485 8.56274 
5 1 12.5614 1.62041 8.5114 
6 1 19.4473 8.56175 1.62498 
7 1 19.4506 8.50944 8.51037 
8 1 12.5077 1.62415 1.62464 
17 1 21.0808 -0.0569389 -0.0682038 
18 1 10.9675 10.1031 10.1041 
19 1 10.9661 10.1037 0.0248859 
20 1 21.0534 0.0170792 10.1095 
21 1 10.9662 0.0231998 10.1036 
22 1 21.0533 10.1087 0.01713 
23 1 21.0467 10.1039 10.1041 
24 1 10.9611 0.0155816 0.0166413 
33 1 16.6711 1.24665 1.24725 
34 1 15.2548 8.84904 8.84904 
35 1 15.2491 8.84928 1.27895 
36 1 16.7426 1.27465 8.84977 
37 1 15.2491 1.27786 8.85029 
38 1 16.7446 8.84885 1.27589 
39 1 16.7557 8.84929 8.84921 
40 1 15.1847 1.26406 1.26498 
41 1 19.8105 4.38023 1.24716 
42 1 12.2221 5.81552 8.84892 
43 1 19.792 5.82195 8.85041 
44 1 12.2214 4.3266 1.27532 
45 1 12.2206 5.82108 1.2781 
46 1 19.795 4.32554 8.84958 
47 1 12.2218 4.31493 8.84913 
48 1 19.8067 5.87306 1.26714 
49 1 19.8116 1.24519 4.38286 
50 1 12.222 8.84827 5.81606 
51 1 12.2206 1.27874 5.82181 
52 1 19.7952 8.84957 4.32527 
53 1 19.792 8.85038 5.82169 
54 1 12.2213 1.27465 4.32706 
55 1 12.2217 8.84823 4.31489 
56 1 19.8073 1.26588 5.87514 
81 1 17.8655 1.33507 1.33697 
82 1 14.065 8.74995 8.74996 
83 1 14.0583 8.74945 1.37875 
84 1 17.9346 1.37376 8.75996 
85 1 14.0579 1.37829 8.75026 
86 1 17.9353 8.7588 1.37503 
87 1 17.9451 8.75063 8.75066 
88 1 13.9945 1.37663 1.37763 
89 1 19.6817 3.19449 1.36336 
90 1 12.3209 7.00517 8.74993 
91 1 19.6918 7.01261 8.74998 
92 1 12.3114 3.13546 1.3748 
93 1 12.3202 7.01128 1.37766 
94 1 19.6955 3.13453 8.75917 
95 1 12.3202 3.12526 8.75091 
96 1 19.6953 7.05983 1.37664 
97 1 19.6827 1.35953 3.19737 
98 1 12.3208 8.74969 7.00543 
99 1 12.3204 1.37864 7.01222 
100 1 19.6957 8.75918 3.13424 
101 1 19.6919 8.7501 7.01229 
102 1 12.3112 1.37373 3.13599 
103 1 12.3202 8.74978 3.1246 
104 1 19.6957 1.37592 7.06296 
129 1 20.4929 0.714198 0.688711 
130 1 11.6609 9.40991 9.40844 
131 1 11.6613 9.41051 0.718338 
132 1 20.3564 0.714971 9.42022 
133 1 11.6604 0.718041 9.41049 
134 1 20.3564 9.41893 0.714686 
135 1 20.3512 9.41099 9.4104 
136 1 11.6505 0.7138 0.713168 
145 2 20.7289 1.53652 1.53332 
ITEM: TIMESTEP
40
ITEM: NUMBER OF ATOMS
145
ITEM: BOX BOUNDS pp pp pp
0.0000000000000000e+00 2.1884000000000000e+01
0.0000000000000000e+00 2.1885999999999999e+01
0.0000000000000000e+00 2.1885000000000002e+01
ITEM: ATOMS id type x y z 
9 1 8.50708 12.5619 12.5609 
10 1 1.63064 19.4364 19.4434 
11 1 1.62906 19.4513 12.5617 
12 1 8.50947 12.5633 19.4506 
13 1 1.6238 12.5644 19.4495 
14 1 8.51607 19.4505 12.5653 
15 1 8.50951 19.4481 19.4481 
16 1 1.61864 12.564 12.5631 
25 1 10.1095 10.9603 10.9605 
26 1 0.0411949 20.9936 21.0024 
27 1 0.0248232 21.0482 10.9649 
28 1 10.1109 10.9602 21.0523 
29 1 0.0221466 10.965 21.0485 
30 1 10.1105 21.0525 10.9615 
31 1 10.1039 21.0455 21.0474 
32 1 0.018709 10.9613 10.9609 
57 1 5.81428 12.2235 12.2236 
58 1 4.33181 19.798 19.7978 
59 1 4.32089 19.7914 12.2229 
60 1 5.81641 12.2234 19.7902 
61 1 4.3194 12.2233 19.7914 
62 1 5.81695 19.7902 12.2231 
63 1 5.83175 19.7946 19.7934 
64 1 4.31686 12.2233 12.2233 
65 1 8.84729 15.2558 12.2235 
66 1 1.27409 16.7445 19.7971 
67 1 8.84826 16.75 19.7915 
68 1 1.28077 15.2548 12.2233 
69 1 1.28024 16.7526 12.2228 
70 1 8.84791 15.2548 19.7905 
71 1 1.27775 15.236 19.7933 
72 1 8.84825 16.7526 12.2234 
73 1 8.84725 12.224 15.2577 
74 1 1.2735 19.7972 16.7418 
75 1 1.27959 12.2228 16.7493 
76 1 8.84824 19.791 15.2545 
77 1 8.84825 19.7923 16.7511 
78 1 1.28076 12.2232 15.2554 
79 1 1.27794 19.7937 15.2374 
80 1 8.84781 12.2244 16.7543 
105 1 7.00452 12.3235 12.3234 
106 1 3.14397 19.6892 19.6884 
107 1 3.12589 19.6901 12.321 
108 1 7.00641 12.3232 19.6899 
109 1 3.12987 12.3201 19.6902 
110 1 6.99845 19.6916 12.3211 
111 1 7.0226 19.6905 19.6897 
112 1 3.12771 12.3225 12.3225 
113 1 8.74797 14.0678 12.3232 
114 1 1.38318 17.9249 19.6877 
115 1 8.75068 17.9409 19.6905 
116 1 1.38149 14.0655 12.323 
117 1 1.37887 17.9357 12.3195 
118 1 8.74815 14.066 19.6902 
119 1 1.38165 14.0478 19.6894 
120 1 8.7483 17.9465 12.3227 
121 1 8.74823 12.3236 14.068 
122 1 1.38183 19.6894 17.9232 
123 1 1.3805 12.3199 17.941 
124 1 8.74782 19.6904 14.0636 
125 1 8.7507 19.6915 17.94 
126 1 1.38142 12.3229 14.0653 
127 1 1.38122 19.6895 14.0472 
128 1 8.74849 12.3234 17.9433 
137 1 9.41413 11.6576 11.6579 
138 1 0.76562 20.3036 20.3083 
139 1 0.718927 20.349 11.6592 
140 1 9.41177 11.659 20.3548 
141 1 0.721867 11.6601 20.3499 
142 1 9.41063 20.3548 11.6585 
143 1 9.40975 20.3503 20.3479 
144 1 0.718012 11.6581 11.6581 
1 1 19.2372 1.71049 1.71307 
2 1 12.5579 8.51024 8.50683 
3 1 12.5524 8.51301 1.61801 
4 1 19.4362 1.62605 8.54086 
5 1 12.5453 1.62298 8.5146 
6 1 19.4387 8.53825 1.62423 
7 1 19.4449 8.52124 8.51632 
8 1 12.5076 1.63056 1.62883 
17 1 21.0897 -0.0663227 -0.0669655 
18 1 10.9594 10.1117 10.1108 
19 1 10.9564 10.1149 0.0129121 
20 1 21.0619 0.00822803 10.1162 
21 1 10.9567 0.0129266 10.1134 
22 1 21.0634 10.1162 0.00809827 
23 1 21.0557 10.1146 10.1137 
24 1 10.9525 0.0056678 0.0041754 
33 1 16.6716 1.23368 1.23492 
34 1 15.2519 8.84806 8.84776 
35 1 15.2477 8.84872 1.27703 
36 1 16.7485 1.27149 8.8471 
37 1 15.2599 1.27453 8.85154 
38 1 16.7509 8.84569 1.27353 
39 1 16.7519 8.84863 8.84861 
40 1 15.176 1.25906 1.25983 
41 1 19.81 4.39134 1.23617 
42 1 12.2226 5.81512 8.84796 
43 1 19.794 5.81598 8.85013 
44 1 12.2242 4.32043 1.27174 
45 1 12.2205 5.82714 1.27587 
46 1 19.7971 4.32107 8.8463 
47 1 12.2225 4.31635 8.84848 
48 1 19.8094 5.90374 1.25989 
49 1 19.8104 1.23387 4.39259 
50 1 12.2228 8.84736 5.81524 
51 1 12.2211 1.27717 5.83435 
52 1 19.7982 8.84727 4.33155 
53 1 19.793 8.84915 5.82819 
54 1 12.2233 1.27012 4.33342 
55 1 12.2222 8.84754 4.32035 
56 1 19.8098 1.25917 5.90894 
81 1 17.8715 1.33702 1.33888 
82 1 14.0705 8.74905 8.74949 
83 1 14.0602 8.75134 1.3794 
84 1 17.9475 1.37879 8.76969 
85 1 14.0468 1.37949 8.75169 
86 1 17.9387 8.7695 1.37858 
87 1 17.9414 8.75036 8.75048 
88 1 13.9878 1.37459 1.37533 
89 1 19.668 3.20113 1.37638 
90 1 12.3228 7.00704 8.74828 
91 1 19.6912 7.01343 8.75227 
92 1 12.2974 3.13946 1.37646 
93 1 12.3201 7.01923 1.38025 
94 1 19.6936 3.13772 8.77154 
95 1 12.32 3.1331 8.75163 
96 1 19.6962 7.08645 1.38158 
97 1 19.6703 1.37075 3.21098 
98 1 12.323 8.74728 7.00737 
99 1 12.3192 1.37968 7.01127 
100 1 19.6931 8.77062 3.12772 
101 1 19.6915 8.75235 7.00451 
102 1 12.2976 1.37609 3.12963 
103 1 12.3188 8.75112 3.13531 
104 1 19.6976 1.38004 7.08384 
129 1 20.5196 0.714422 0.679046 
130 1 11.657 9.414 9.41538 
131 1 11.6525 9.41871 0.7131 
132 1 20.3612 0.71187 9.43764 
133 1 11.6526 0.711973 9.41854 
134 1 20.3587 9.43558 0.71251 
135 1 20.3593 9.41588 9.4179 
136 1 11.6318 0.708686 0.710309 
145 2 20.8836 1.49978 1.49509 
ITEM: TIMESTEP
50
ITEM: NUMBER OF ATOMS
145
ITEM: BOX BOUNDS pp pp pp
0.0000000000000000e+00 2.1884000000000000e+01
0.0000000000000000e+00 2.1885999999999999e+01
0.0000000000000000e+00 2.1885000000000002e+01
ITEM: ATOMS id type x y z 
9 1 8.51297 12.5567 12.5587 
10 1 1.65081 19.4257 19.4239 
11 1 1.62793 19.4472 12.5417 
12 1 8.51451 12.557 19.4523 
13 1 1.62777 12.543 19.4437 
14 1 8.51664 19.4491 12.561 
15 1 8.52768 19.442 19.4425 
16 1 1.62039 12.5566 12.5567 
25 1 10.101 10.9687 10.9685 
26 1 0.0365453 20.9712 20.9818 
27 1 0.0373044 21.0361 10.974 
28 1 10.0994 10.9715 21.041 
29 1 0.0347244 10.9745 21.0361 
30 1 10.1001 21.0413 10.9715 
31 1 10.0943 21.0328 21.0348 
32 1 0.0294363 10.972 10.9711 
57 1 5.81656 12.2255 12.2256 
58 1 4.33419 19.8009 19.7999 
59 1 4.3189 19.7914 12.223 
60 1 5.82044 12.2247 19.7895 
61 1 4.32234 12.2235 19.7908 
62 1 5.82248 19.7898 12.2238 
63 1 5.83655 19.7974 19.7963 
64 1 4.31631 12.2251 12.2251 
65 1 8.84585 15.2524 12.2256 
66 1 1.27114 16.7297 19.7998 
67 1 8.84773 16.7512 19.7911 
68 1 1.28154 15.2491 12.2239 
69 1 1.27906 16.7457 12.223 
70 1 8.84681 15.2491 19.7899 
71 1 1.2748 15.2358 19.796 
72 1 8.84531 16.7597 12.2249 
73 1 8.84554 12.2262 15.2537 
74 1 1.27142 19.8001 16.737 
75 1 1.28 12.2232 16.7495 
76 1 8.84605 19.7903 15.2438 
77 1 8.84809 19.7922 16.7491 
78 1 1.28159 12.2242 15.2501 
79 1 1.27449 19.7958 15.2348 
80 1 8.846 12.2259 16.7546 
105 1 7.00655 12.3257 12.3255 
106 1 3.14965 19.6819 19.6819 
107 1 3.13104 19.6903 12.3217 
108 1 7.01082 12.3255 19.6876 
109 1 3.13196 12.3216 19.6889 
110 1 7.01015 19.6889 12.3245 
111 1 7.02334 19.6896 19.6885 
112 1 3.1259 12.3252 12.3249 
113 1 8.74514 14.064 12.3253 
114 1 1.39024 17.9176 19.6821 
115 1 8.74999 17.9371 19.6886 
116 1 1.38379 14.058 12.3256 
117 1 1.38124 17.9373 12.3194 
118 1 8.74598 14.0601 19.6876 
119 1 1.38294 14.0479 19.6888 
120 1 8.74842 17.9454 12.3258 
121 1 8.74534 12.326 14.0635 
122 1 1.38924 19.6825 17.9213 
123 1 1.38234 12.3211 17.9391 
124 1 8.74731 19.6873 14.0605 
125 1 8.74948 19.6893 17.9389 
126 1 1.38333 12.3254 14.0599 
127 1 1.38285 19.6909 14.0486 
128 1 8.74674 12.3256 17.9444 
137 1 9.40843 11.6633 11.6643 
138 1 0.764566 20.3005 20.3006 
139 1 0.728245 20.3409 11.6665 
140 1 9.40459 11.666 20.3474 
141 1 0.730177 11.6665 20.342 
142 1 9.40545 20.3476 11.6651 
143 1 9.40204 20.3406 20.3382 
144 1 0.72482 11.6648 11.6649 
1 1 19.1637 1.79929 1.80049 
2 1 12.553 8.51678 8.51377 
3 1 12.5488 8.52696 1.61823 
4 1 19.4507 1.62605 8.57691 
5 1 12.5338 1.62472 8.52363 
6 1 19.4458 8.57524 1.62125 
7 1 19.4485 8.52729 8.52255 
8 1 12.5122 1.62246 1.62299 
17 1 21.0485 -0.0344845 -0.0415934 
18 1 10.9655 10.1055 10.1045 
19 1 10.9649 10.108 0.0198468 
20 1 21.0539 0.0176666 10.1092 
21 1 10.9638 0.0187871 10.1086 
22 1 21.0547 10.1089 0.0179349 
23 1 21.0486 10.1077 10.1074 
24 1 10.9599 0.0137582 0.0122505 
33 1 16.6356 1.21149 1.21343 
34 1 15.2519 8.84713 8.84747 
35 1 15.2425 8.84566 1.2749 
36 1 16.7396 1.27109 8.85258 
37 1 15.2527 1.27224 8.84856 
38 1 16.7425 8.85082 1.27425 
39 1 16.7527 8.84764 8.84806 
40 1 15.1785 1.25204 1.25311 
41 1 19.8049 4.37359 1.2451 
42 1 12.2243 5.82052 8.84698 
43 1 19.7963 5.83038 8.84711 
44 1 12.2193 4.33325 1.27137 
45 1 12.2238 5.8313 1.27343 
46 1 19.7978 4.3239 8.85136 
47 1 12.2241 4.31773 8.84823 
48 1 19.8147 5.87347 1.24962 
49 1 19.8057 1.24084 4.37318 
50 1 12.2238 8.84651 5.82243 
51 1 12.2244 1.2731 5.83583 
52 1 19.7976 8.85201 4.3264 
53 1 19.7965 8.84661 5.83027 
54 1 12.219 1.27071 4.32927 
55 1 12.2225 8.84732 4.32194 
56 1 19.8159 1.24785 5.87902 
81 1 17.8339 1.34769 1.34938 
82 1 14.0619 8.74775 8.74697 
83 1 14.054 8.75126 1.37863 
84 1 17.9386 1.37477 8.77729 
85 1 14.0546 1.37858 8.75505 
86 1 17.933 8.77677 1.37504 
87 1 17.9441 8.75171 8.75029 
88 1 13.9858 1.37374 1.37427 
89 1 19.6022 3.19391 1.39854 
90 1 12.3225 7.0085 8.74591 
91 1 19.6892 7.01865 8.75407 
92 1 12.2871 3.14218 1.37481 
93 1 12.3191 7.02031 1.38 
94 1 19.6959 3.13567 8.77964 
95 1 12.3158 3.13034 8.75012 
96 1 19.7032 7.05521 1.37406 
97 1 19.6043 1.39295 3.19955 
98 1 12.3239 8.74495 7.0138 
99 1 12.3146 1.3834 7.02255 
100 1 19.6958 8.77883 3.13763 
101 1 19.6878 8.75391 7.0204 
102 1 12.2872 1.37403 3.14159 
103 1 12.3175 8.75121 3.13 
104 1 19.7042 1.3736 7.05986 
129 1 20.5561 0.757937 0.72981 
130 1 11.6595 9.41012 9.41179 
131 1 11.6557 9.41412 0.718318 
132 1 20.3492 0.722294 9.44044 
133 1 11.651 0.718995 9.41439 
134 1 20.3469 9.43863 0.721293 
135 1 20.3535 9.41307 9.41514 
136 1 11.625 0.719255 0.719956 
145 2 21.1562 1.42782 1.41648 
ITEM: TIMESTEP
60
ITEM: NUMBER OF ATOMS
145
ITEM: BOX BOUNDS pp pp pp
0.0000000000000000e+00 2.1884000000000000e+01
0.0000000000000000e+00 2.1885999999999999e+01
0.0000000000000000e+00 2.1885000000000002e+01
ITEM: ATOMS id type x y z 
9 1 8.51044 12.5596 12.5604 
10 1 1.65286 19.4184 19.4201 
11 1 1.62728 19.4423 12.5478 
12 1 8.51224 12.5584 19.4498 
13 1 1.62875 12.5483 19.4435 
14 1 8.51324 19.4501 12.5577 
15 1 8.52159 19.4424 19.441 
16 1 1.62232 12.5571 12.5585 
25 1 10.1045 10.9658 10.9657 
26 1 0.0240996 20.9834 20.9922 
27 1 0.0312532 21.0413 10.9684 
28 1 10.1037 10.9674 21.0455 
29 1 0.0297056 10.9691 21.0419 
30 1 10.1038 21.0453 10.9677 
31 1 10.0991 21.038 21.0388 
32 1 0.0249759 10.9675 10.9668 
57 1 5.81814 12.2261 12.226 
58 1 4.33429 19.7999 19.799 
59 1 4.32057 19.7917 12.2238 
60 1 5.8196 12.2248 19.7895 
61 1 4.32349 12.2239 19.7912 
62 1 5.81805 19.79 12.2237 
63 1 5.83663 19.7975 19.7963 
64 1 4.31787 12.2253 12.2253 
65 1 8.845 15.2534 12.2259 
66 1 1.27205 16.7367 19.799 
67 1 8.84755 16.7466 19.7916 
68 1 1.28129 15.2503 12.2241 
69 1 1.27927 16.7486 12.2235 
70 1 8.84679 15.2514 19.7899 
71 1 1.27437 15.2336 19.7966 
72 1 8.84578 16.7519 12.2252 
73 1 8.84508 12.2267 15.2526 
74 1 1.27207 19.7991 16.7377 
75 1 1.27959 12.2234 16.7455 
76 1 8.84675 19.7906 15.2537 
77 1 8.8473 19.7923 16.7469 
78 1 1.28152 12.2245 15.2512 
79 1 1.27481 19.7963 15.2343 
80 1 8.84594 12.2261 16.7517 
105 1 7.0041 12.3248 12.3248 
106 1 3.15107 19.6826 19.682 
107 1 3.13356 19.6902 12.3199 
108 1 7.01003 12.3246 19.6882 
109 1 3.13253 12.3203 19.6886 
110 1 7.01005 19.6891 12.3237 
111 1 7.02199 19.6897 19.6888 
112 1 3.1284 12.3242 12.324 
113 1 8.74622 14.0676 12.3246 
114 1 1.39085 17.9212 19.6813 
115 1 8.75127 17.9375 19.6885 
116 1 1.38306 14.0598 12.3242 
117 1 1.38174 17.9374 12.3188 
118 1 8.74691 14.0612 19.6884 
119 1 1.38316 14.0434 19.6884 
120 1 8.74914 17.9422 12.3244 
121 1 8.74624 12.325 14.0668 
122 1 1.38986 19.6825 17.9225 
123 1 1.38258 12.3199 17.9402 
124 1 8.74846 19.6885 14.0616 
125 1 8.75108 19.6893 17.9355 
126 1 1.38269 12.3241 14.0622 
127 1 1.38255 19.6904 14.0474 
128 1 8.74735 12.3247 17.9437 
137 1 9.41056 11.6603 11.6613 
138 1 0.750259 20.3102 20.3113 
139 1 0.725882 20.3447 11.6616 
140 1 9.40853 11.6621 20.3504 
141 1 0.726414 11.6612 20.3451 
142 1 9.40861 20.3495 11.6629 
143 1 9.40658 20.3426 20.3413 
144 1 0.722156 11.662 11.6615 
1 1 19.2065 1.78675 1.78805 
2 1 12.5569 8.51406 8.51494 
3 1 12.5495 8.52429 1.62271 
4 1 19.4448 1.62642 8.5632 
5 1 12.5441 1.62415 8.52466 
6 1 19.4434 8.55987 1.62606 
7 1 19.4486 8.52308 8.52272 
8 1 12.5118 1.62751 1.62691 
17 1 21.0538 -0.0339827 -0.042026 
18 1 10.9618 10.1089 10.1085 
19 1 10.9609 10.1111 0.0165733 
20 1 21.058 0.0135497 10.1154 
21 1 10.9598 0.0152516 10.1118 
22 1 21.0571 10.1138 0.0147712 
23 1 21.0526 10.1109 10.1113 
24 1 10.954 0.0102049 0.00935563 
33 1 16.6525 1.21121 1.21308 
34 1 15.253 8.84675 8.84702 
35 1 15.245 8.84566 1.27515 