LAMMPS (3 Mar 2020)
# Alpha
clear
units		real
dimension 3
boundary        p p p
atom_style	charge
newton on
read_data       OOH_3.lmp
  orthogonal box = (0 0 0) to (21.884 21.886 21.885)
  2 by 2 by 2 MPI processor grid
  reading atoms ...
  147 atoms
  read_data CPU = 0.115205 secs

timestep 0.25

# ---------- Define Interatomic Potential ---------------------
pair_style      reax/c NULL checkqeq no
pair_coeff      * * ffield.reax C H O
fix             2 all qeq/reax 1 0.0 10.0 1.0e-6 reax/c

#------------ Equilibration of the system -------------------------
reset_timestep 0

dump 1 all custom 10 min.lammpstrj id type x y z

minimize 1.0e-8 1.0e-8 100000 100000
WARNING: Using 'neigh_modify every 1 delay 0 check yes' setting during minimization (../min.cpp:190)
WARNING: Total cutoff < 2*bond cutoff. May need to use an increased neighbor list skin. (../pair_reaxc.cpp:413)
Neighbor list info ...
  update every 1 steps, delay 0 steps, check yes
  max neighbors/atom: 2000, page size: 100000
  master list distance cutoff = 9.5
  ghost atom cutoff = 9.5
  binsize = 4.75, bins = 5 5 5
  2 neighbor lists, perpetual/occasional/extra = 2 0 0
  (1) pair reax/c, perpetual
      attributes: half, newton off, ghost
      pair build: half/bin/newtoff/ghost
      stencil: half/ghost/bin/3d/newtoff
      bin: standard
  (2) fix qeq/reax, perpetual, copy from (1)
      attributes: half, newton off, ghost
      pair build: copy
      stencil: none
      bin: none
Per MPI rank memory allocation (min/avg/max) = 12.72 | 13.52 | 15.32 Mbytes
Step Temp E_pair E_mol TotEng Press 
       0            0   -26376.577            0   -26376.577    361.22007 
      44            0   -26425.607            0   -26425.607    380.68938 
Loop time of 0.491498 on 8 procs for 44 steps with 147 atoms

99.5% CPU use with 8 MPI tasks x no OpenMP threads

Minimization stats:
  Stopping criterion = linesearch alpha is zero
  Energy initial, next-to-last, final = 
        -26376.5769106     -26425.6066889     -26425.6066889
  Force two-norm initial, final = 313.076 92.7548
  Force max component initial, final = 183.932 42.5993
  Final line search alpha, max atom move = 4.78177e-12 2.037e-10
  Iterations, force evaluations = 44 216

MPI task timing breakdown:
Section |  min time  |  avg time  |  max time  |%varavg| %total
---------------------------------------------------------------
Pair    | 0.13347    | 0.16124    | 0.24247    |  11.4 | 32.81
Neigh   | 0          | 0          | 0          |   0.0 |  0.00
Comm    | 0.0044979  | 0.083804   | 0.11345    |  15.4 | 17.05
Output  | 0.00024255 | 0.00026116 | 0.00029    |   0.0 |  0.05
Modify  | 0.24215    | 0.24276    | 0.24314    |   0.1 | 49.39
Other   |            | 0.003433   |            |       |  0.70

Nlocal:    18.375 ave 72 max 0 min
Histogram: 6 0 0 0 0 0 0 0 0 2
Nghost:    313.125 ave 323 max 306 min
Histogram: 1 0 2 2 1 0 0 1 0 1
Neighs:    625.375 ave 2462 max 0 min
Histogram: 6 0 0 0 0 0 0 0 0 2

Total # of neighbors = 5003
Ave neighs/atom = 34.034
Neighbor list builds = 0
Dangerous builds = 0

###
min_style cg
minimize 1.0e-8 1.0e-8 100000 100000
WARNING: Using 'neigh_modify every 1 delay 0 check yes' setting during minimization (../min.cpp:190)
WARNING: Total cutoff < 2*bond cutoff. May need to use an increased neighbor list skin. (../pair_reaxc.cpp:413)
Per MPI rank memory allocation (min/avg/max) = 12.72 | 13.52 | 15.32 Mbytes
Step Temp E_pair E_mol TotEng Press 
      44            0   -26425.607            0   -26425.607    380.68938 
     101            0   -26432.861            0   -26432.861   -383.57632 
Loop time of 0.711932 on 8 procs for 57 steps with 147 atoms

99.5% CPU use with 8 MPI tasks x no OpenMP threads

Minimization stats:
  Stopping criterion = linesearch alpha is zero
  Energy initial, next-to-last, final = 
        -26425.6066889     -26432.8608708     -26432.8608708
  Force two-norm initial, final = 92.7548 14.5251
  Force max component initial, final = 42.5993 5.01463
  Final line search alpha, max atom move = 3.71442e-11 1.86265e-10
  Iterations, force evaluations = 57 320

MPI task timing breakdown:
Section |  min time  |  avg time  |  max time  |%varavg| %total
---------------------------------------------------------------
Pair    | 0.19806    | 0.24015    | 0.36159    |  13.9 | 33.73
Neigh   | 0          | 0          | 0          |   0.0 |  0.00
Comm    | 0.0069314  | 0.12545    | 0.1703     |  18.8 | 17.62
Output  | 0.00035726 | 0.00038904 | 0.00044483 |   0.0 |  0.05
Modify  | 0.33994    | 0.34083    | 0.34137    |   0.1 | 47.87
Other   |            | 0.005117   |            |       |  0.72

Nlocal:    18.375 ave 72 max 0 min
Histogram: 6 0 0 0 0 0 0 0 0 2
Nghost:    314.625 ave 325 max 307 min
Histogram: 1 0 2 2 0 1 1 0 0 1
Neighs:    624.75 ave 2456 max 0 min
Histogram: 6 0 0 0 0 0 0 0 0 2

Total # of neighbors = 4998
Ave neighs/atom = 34
Neighbor list builds = 0
Dangerous builds = 0

###
fix 1 all box/relax aniso 0.0
min_style cg
minimize 1.0e-8 1.0e-8 100000 100000
WARNING: Using 'neigh_modify every 1 delay 0 check yes' setting during minimization (../min.cpp:190)
WARNING: Total cutoff < 2*bond cutoff. May need to use an increased neighbor list skin. (../pair_reaxc.cpp:413)
Per MPI rank memory allocation (min/avg/max) = 12.72 | 13.52 | 15.32 Mbytes
Step Temp E_pair E_mol TotEng Press Volume 
     101            0   -26432.861            0   -26432.861   -383.57632    10481.891 
     103            0   -26432.862            0   -26432.862   -362.81039    10481.795 
Loop time of 0.0273901 on 8 procs for 2 steps with 147 atoms

99.5% CPU use with 8 MPI tasks x no OpenMP threads

Minimization stats:
  Stopping criterion = energy tolerance
  Energy initial, next-to-last, final = 
        -26432.8608708     -26432.8617447      -26432.861798
  Force two-norm initial, final = 134.653 128.815
  Force max component initial, final = 127.017 121.783
  Final line search alpha, max atom move = 3.19949e-09 3.89643e-07
  Iterations, force evaluations = 2 15

MPI task timing breakdown:
Section |  min time  |  avg time  |  max time  |%varavg| %total
---------------------------------------------------------------
Pair    | 0.0098173  | 0.011858   | 0.017742   |   3.0 | 43.29
Neigh   | 0          | 0          | 0          |   0.0 |  0.00
Comm    | 0.00031874 | 0.0060808  | 0.0082478  |   4.2 | 22.20
Output  | 0          | 0          | 0          |   0.0 |  0.00
Modify  | 0.0089612  | 0.0090085  | 0.0090334  |   0.0 | 32.89
Other   |            | 0.0004425  |            |       |  1.62

Nlocal:    18.375 ave 72 max 0 min
Histogram: 6 0 0 0 0 0 0 0 0 2
Nghost:    314.625 ave 325 max 307 min
Histogram: 1 0 2 2 0 1 1 0 0 1
Neighs:    621.75 ave 2441 max 0 min
Histogram: 6 0 0 0 0 0 0 0 0 2

Total # of neighbors = 4974
Ave neighs/atom = 33.8367
Neighbor list builds = 0
Dangerous builds = 0

unfix 1
###
min_style cg
minimize 1.0e-8 1.0e-8 100000 100000
WARNING: Using 'neigh_modify every 1 delay 0 check yes' setting during minimization (../min.cpp:190)
WARNING: Total cutoff < 2*bond cutoff. May need to use an increased neighbor list skin. (../pair_reaxc.cpp:413)
Per MPI rank memory allocation (min/avg/max) = 12.72 | 13.52 | 15.32 Mbytes
Step Temp E_pair E_mol TotEng Press 
     103            0   -26432.862            0   -26432.862   -362.81039 
     104            0   -26432.862            0   -26432.862   -362.81039 
Loop time of 0.101826 on 8 procs for 1 steps with 147 atoms

99.4% CPU use with 8 MPI tasks x no OpenMP threads

Minimization stats:
  Stopping criterion = linesearch alpha is zero
  Energy initial, next-to-last, final = 
         -26432.861798      -26432.861798      -26432.861798
  Force two-norm initial, final = 14.5307 14.5307
  Force max component initial, final = 4.96294 4.96294
  Final line search alpha, max atom move = 3.7531e-11 1.86265e-10
  Iterations, force evaluations = 1 55

MPI task timing breakdown:
Section |  min time  |  avg time  |  max time  |%varavg| %total
---------------------------------------------------------------
Pair    | 0.034301   | 0.041422   | 0.062199   |   5.7 | 40.68
Neigh   | 0          | 0          | 0          |   0.0 |  0.00
Comm    | 0.0011167  | 0.021419   | 0.029046   |   7.8 | 21.03
Output  | 0          | 0          | 0          |   0.0 |  0.00
Modify  | 0.038002   | 0.038152   | 0.038242   |   0.0 | 37.47
Other   |            | 0.000833   |            |       |  0.82

Nlocal:    18.375 ave 72 max 0 min
Histogram: 6 0 0 0 0 0 0 0 0 2
Nghost:    314.625 ave 325 max 307 min
Histogram: 1 0 2 2 0 1 1 0 0 1
Neighs:    621.75 ave 2441 max 0 min
Histogram: 6 0 0 0 0 0 0 0 0 2

Total # of neighbors = 4974
Ave neighs/atom = 33.8367
Neighbor list builds = 0
Dangerous builds = 0

###
fix 1 all box/relax aniso 0.0
min_style cg
minimize 1.0e-8 1.0e-8 100000 100000
WARNING: Using 'neigh_modify every 1 delay 0 check yes' setting during minimization (../min.cpp:190)
WARNING: Total cutoff < 2*bond cutoff. May need to use an increased neighbor list skin. (../pair_reaxc.cpp:413)
Per MPI rank memory allocation (min/avg/max) = 12.72 | 13.52 | 15.32 Mbytes
Step Temp E_pair E_mol TotEng Press Volume 
     104            0   -26432.862            0   -26432.862   -362.81039    10481.795 
     105            0   -26432.862            0   -26432.862   -361.60477    10481.789 
Loop time of 0.0189206 on 8 procs for 1 steps with 147 atoms

99.5% CPU use with 8 MPI tasks x no OpenMP threads

Minimization stats:
  Stopping criterion = energy tolerance
  Energy initial, next-to-last, final = 
         -26432.861798      -26432.861798     -26432.8618512
  Force two-norm initial, final = 128.814 128.474
  Force max component initial, final = 121.782 121.475
  Final line search alpha, max atom move = 3.20758e-09 3.89641e-07
  Iterations, force evaluations = 1 10

MPI task timing breakdown:
Section |  min time  |  avg time  |  max time  |%varavg| %total
---------------------------------------------------------------
Pair    | 0.0067644  | 0.0081618  | 0.01224    |   2.5 | 43.14
Neigh   | 0          | 0          | 0          |   0.0 |  0.00
Comm    | 0.00022198 | 0.004206   | 0.0057019  |   3.5 | 22.23
Output  | 0          | 0          | 0          |   0.0 |  0.00
Modify  | 0.0061287  | 0.0061598  | 0.0061774  |   0.0 | 32.56
Other   |            | 0.000393   |            |       |  2.08

Nlocal:    18.375 ave 72 max 0 min
Histogram: 6 0 0 0 0 0 0 0 0 2
Nghost:    314.625 ave 325 max 307 min
Histogram: 1 0 2 2 0 1 1 0 0 1
Neighs:    621.75 ave 2441 max 0 min
Histogram: 6 0 0 0 0 0 0 0 0 2

Total # of neighbors = 4974
Ave neighs/atom = 33.8367
Neighbor list builds = 0
Dangerous builds = 0

unfix 1
###
min_style cg
minimize 1.0e-8 1.0e-8 100000 100000
WARNING: Using 'neigh_modify every 1 delay 0 check yes' setting during minimization (../min.cpp:190)
WARNING: Total cutoff < 2*bond cutoff. May need to use an increased neighbor list skin. (../pair_reaxc.cpp:413)
Per MPI rank memory allocation (min/avg/max) = 12.72 | 13.52 | 15.32 Mbytes
Step Temp E_pair E_mol TotEng Press 
     105            0   -26432.862            0   -26432.862   -361.60477 
     106            0   -26432.862            0   -26432.862   -361.60477 
Loop time of 0.101755 on 8 procs for 1 steps with 147 atoms

99.5% CPU use with 8 MPI tasks x no OpenMP threads

Minimization stats:
  Stopping criterion = linesearch alpha is zero
  Energy initial, next-to-last, final = 
        -26432.8618512     -26432.8618512     -26432.8618512
  Force two-norm initial, final = 14.5316 14.5316
  Force max component initial, final = 4.95989 4.95989
  Final line search alpha, max atom move = 3.75541e-11 1.86265e-10
  Iterations, force evaluations = 1 55

MPI task timing breakdown:
Section |  min time  |  avg time  |  max time  |%varavg| %total
---------------------------------------------------------------
Pair    | 0.034263   | 0.041359   | 0.062088   |   5.7 | 40.65
Neigh   | 0          | 0          | 0          |   0.0 |  0.00
Comm    | 0.001112   | 0.021381   | 0.02897    |   7.8 | 21.01
Output  | 0          | 0          | 0          |   0.0 |  0.00
Modify  | 0.038044   | 0.038197   | 0.03829    |   0.0 | 37.54
Other   |            | 0.0008172  |            |       |  0.80

Nlocal:    18.375 ave 72 max 0 min
Histogram: 6 0 0 0 0 0 0 0 0 2
Nghost:    314.625 ave 325 max 307 min
Histogram: 1 0 2 2 0 1 1 0 0 1
Neighs:    621.75 ave 2441 max 0 min
Histogram: 6 0 0 0 0 0 0 0 0 2

Total # of neighbors = 4974
Ave neighs/atom = 33.8367
Neighbor list builds = 0
Dangerous builds = 0

undump 1
#############
#----------- Thermo ------------
reset_timestep 0
thermo  200

thermo_style    custom step temp etotal ke pe press
velocity all create 300 12345 mom yes rot yes
fix 1 all npt temp 300 300 25.0 iso 0.0 0.0 250.0

variable vpe equal pe
variable vtemp equal temp
variable vstep equal step

fix output all print 2500 "${vstep} ${vtemp} ${vpe}" file temp-tpdh-Pt.dat screen no

dump 1 all custom 2500 thermo-tpdh-Pt.lammpstrj id type x y z

run 1000000
WARNING: Total cutoff < 2*bond cutoff. May need to use an increased neighbor list skin. (../pair_reaxc.cpp:413)
Per MPI rank memory allocation (min/avg/max) = 11.6 | 12.39 | 14.19 Mbytes
Step Temp TotEng KinEng PotEng Press 
       0          300   -26302.302    130.55948   -26432.862    207.77998 
     200    210.92246   -26257.285     91.79309   -26349.078    3273.6428 
     400    296.34338   -26191.142    128.96813    -26320.11    4269.4758 
     600    303.08051   -26165.814    131.90011   -26297.715   -3026.7822 
     800    248.09402   -26190.304    107.97009   -26298.274   -150.30032 
    1000    328.94458   -26163.104    143.15611   -26306.261    404.52949 
    1200    281.56814   -26177.385    122.53797   -26299.923   -2155.1458 
    1400    303.66524   -26186.349    132.15458   -26318.504   -4927.3598 
    1600    268.90341   -26203.461     117.0263   -26320.488    2445.2217 
    1800    310.42102   -26179.591    135.09469   -26314.685    6752.7868 
    2000    289.25889   -26173.042    125.88497   -26298.927    3696.6814 
    2200    277.39536    -26193.57    120.72198   -26314.292   -222.58681 
    2400    296.62856   -26179.667    129.09223   -26308.759   -4256.2205 
    2600    315.14635   -26156.525    137.15115   -26293.676   -2538.5113 
    2800    311.16271    -26159.28    135.41747   -26294.697   -2461.3269 
    3000    288.59716   -26178.587    125.59699   -26304.184    2122.0446 
    3200    320.42399   -26147.428    139.44796   -26286.876   -933.49329 
    3400    301.59419   -26161.775    131.25327   -26293.028    6261.2808 
    3600    325.09602   -26176.053    141.48122   -26317.535    5330.5421 
    3800    260.26256   -26205.853    113.26581   -26319.119   -685.93931 
    4000    304.91428    -26186.79    132.69817   -26319.489    2729.8497 
    4200    291.85201   -26176.228    127.01349   -26303.242    3428.0681 
    4400    330.22236   -26143.555     143.7122   -26287.268   -1099.9186 
    4600    308.19379   -26174.103     134.1254   -26308.229   -1569.4231 
    4800    263.62818   -26188.519    114.73053    -26303.25    26.226545 
    5000    333.55518   -26159.879    145.16263   -26305.042   -242.38603 
    5200    264.57707   -26175.183    115.14348   -26290.327    4463.4593 
    5400    276.88527   -26201.195    120.49999   -26321.695   -682.86668 
    5600    299.13304   -26188.067    130.18218   -26318.249      2837.73 
    5800     302.8069   -26192.727    131.78104   -26324.508    1718.9212 
    6000    247.47183   -26220.373    107.69931   -26328.073    923.99451 
    6200    277.53392   -26193.893    120.78228   -26314.675   -1130.7952 
    6400    293.76363   -26177.199    127.84542   -26305.044    -16.45247 
    6600    332.44787    -26146.43    144.68074    -26291.11    3364.8995 
    6800    302.26425   -26163.872    131.54488   -26295.417    6918.4245 
    7000    309.03869   -26171.498     134.4931   -26305.991   -968.14838 
    7200     278.5097   -26192.292    121.20694   -26313.499    2844.8917 
    7400    293.09565   -26177.069    127.55472   -26304.624    1889.2014 
    7600    333.47641   -26173.298    145.12835   -26318.427     1821.964 
    7800     263.9987   -26198.988    114.89178   -26313.879   -1904.4814 
    8000    311.84992   -26172.294    135.71654   -26308.011    5029.0809 
    8200    297.46142   -26163.894    129.45469   -26293.349    4724.6701 
    8400    330.13862   -26144.322    143.67575   -26287.998   -96.064832 
    8600    293.65266   -26167.961    127.79713   -26295.758    364.13667 
    8800    313.17701   -26178.137    136.29409   -26314.431    630.05457 
    9000    330.51305   -26148.493    143.83871   -26292.332   -870.23138 
    9200    304.57865   -26163.408     132.5521    -26295.96    295.38411 
    9400    284.96251   -26182.205    124.01519    -26306.22    3182.1152 
    9600    333.67228   -26161.229     145.2136   -26306.443    563.29294 
    9800    321.79371    -26164.96    140.04407   -26305.004   -6588.3922 
   10000    302.61612   -26179.195    131.69801   -26310.893   -7316.6566 
   10200    250.61365   -26204.161    109.06662   -26313.227    -3527.554 
   10400    267.06429   -26182.184    116.22592    -26298.41    615.59839 
   10600    293.44119   -26165.101     127.7051   -26292.806   -1765.8734 
   10800    307.73622   -26167.815    133.92627   -26301.741   -5655.7142 
   11000    296.60784   -26187.216    129.08322   -26316.299   -388.88683 
   11200    305.24041   -26163.487     132.8401   -26296.327    4716.0214 
   11400    335.37632   -26174.543    145.95519   -26320.498   -1988.9992 
   11600    318.79724   -26196.239    138.74001   -26334.979    3564.9183 
   11800    332.23165   -26182.742    144.58664   -26327.329    1171.4916 
   12000    314.45067   -26163.057    136.84838   -26299.905    393.06419 
   12200    284.83453   -26181.746    123.95949   -26305.706    656.38678 
   12400    316.66732   -26174.387    137.81307     -26312.2   -1126.1755 
   12600    305.34714   -26174.556    132.88655   -26307.443   -1800.1195 
   12800    279.83684   -26199.879    121.78451   -26321.663    2228.9968 
   13000    294.43351   -26176.592    128.13695   -26304.729    744.07728 
   13200     293.8362   -26192.038    127.87701   -26319.915    1051.1499 
   13400    295.97135    -26185.55    128.80622   -26314.356   -1561.2656 
   13600    310.62743   -26163.482    135.18452   -26298.666    2413.5734 
   13800    308.45231   -26170.567    134.23791   -26304.805     8792.123 
   14000    269.75719   -26189.488    117.39786   -26306.886    6477.9083 
   14200    324.46172   -26153.714    141.20518   -26294.919    4228.5768 
   14400    304.61069    -26178.93    132.56604   -26311.496    3734.5755 
   14600    305.35609   -26183.263    132.89044   -26316.154    -1573.515 
   14800    340.14271   -26152.177    148.02952   -26300.207   -4334.8081 
   15000    304.48603   -26163.427    132.51179   -26295.939   -1293.3759 
   15200    279.73494   -26182.492    121.74016   -26304.232    2428.0743 
   15400    274.29956    -26180.21    119.37469   -26299.585    2561.5884 
   15600    293.48804   -26168.179    127.72549   -26295.905   -895.57579 
   15800    317.58785   -26172.683    138.21368   -26310.897   -2858.9857 
   16000    280.68759   -26191.722    122.15475   -26313.877    324.04307 
   16200    285.98055   -26201.391    124.45824   -26325.849    243.49869 
   16400     275.3122   -26174.831    119.81539   -26294.647    1741.2121 
   16600    304.18299   -26167.319    132.37991   -26299.699    2701.5951 
   16800    280.90548   -26196.516    122.24958   -26318.765   -498.79147 
   17000    306.65409   -26190.273    133.45533   -26323.728   -198.61654 
   17200    309.12316   -26178.818    134.52986   -26313.347    1904.1093 
   17400    319.93988   -26181.219    139.23728   -26320.457   -520.29693 
   17600    306.47428   -26186.931    133.37708   -26320.308     390.3811 
   17800    276.08832   -26193.532    120.15316   -26313.685    3688.6354 
   18000    334.09574   -26162.654    145.39789   -26308.051    567.13462 
   18200    293.13282   -26176.669     127.5709    -26304.24     2273.895 
   18400    314.65848   -26186.276    136.93883   -26323.214    4545.0788 
   18600    305.24256   -26191.657    132.84103   -26324.498    1501.2555 
   18800    336.12319   -26156.794    146.28023   -26303.074   -594.32414 
   19000    329.39819    -26177.99    143.35352   -26321.343    2856.8971 
   19200    320.05184   -26174.847    139.28601   -26314.133    4426.3745 
   19400      319.231   -26167.033    138.92878   -26305.962    850.33591 
   19600    282.26473   -26197.159    122.84112       -26320    896.12229 
   19800    313.16147   -26169.738    136.28733   -26306.025   -4509.9845 
   20000    315.22449   -26177.547    137.18515   -26314.732   -998.28568 
   20200     291.8662   -26200.386    127.01966   -26327.406      4540.34 
   20400     321.6791   -26180.019    139.99419   -26320.013   -759.85593 
   20600    336.04275   -26161.802    146.24522   -26308.047     1898.682 
   20800    286.77809   -26187.482    124.80533   -26312.287    841.07904 
   21000    282.29011   -26177.626    122.85217   -26300.478    -1858.852 
   21200    331.08771   -26171.405     144.0888   -26315.494    276.61996 
   21400    305.18327    -26188.02    132.81523   -26320.835    6847.7778 
   21600    291.09595   -26190.081    126.68445   -26316.765    2047.3973 
   21800    313.87745   -26177.661    136.59892    -26314.26     3270.704 
   22000      290.568   -26186.555    126.45469    -26313.01   -3099.7125 
   22200    280.19408   -26199.339    121.93998   -26321.279   -948.59473 
   22400    319.12677   -26166.647    138.88342   -26305.531    3732.8795 
   22600    300.94635   -26183.321    130.97133   -26314.293    3927.1278 
   22800    318.05536   -26196.738    138.41714   -26335.155    1790.6017 
   23000    279.64158   -26190.635    121.69953   -26312.334    4560.8171 
   23200    340.43823   -26171.744    148.15813   -26319.902   -3759.9063 
   23400    286.51296    -26198.51    124.68994   -26323.199   -5109.2084 
   23600    309.64844   -26183.377    134.75846   -26318.135    1373.2185 
   23800    293.61622   -26185.743    127.78127   -26313.525    2860.7317 
   24000    266.47233   -26217.939    115.96829   -26333.907    431.30542 
   24200    269.04312       -26203     117.0871   -26320.087   -4095.5121 
   24400    313.67509   -26186.969    136.51086    -26323.48    2178.6635 
   24600    290.58182   -26201.086    126.46071   -26327.547   -235.85513 
   24800    289.25612   -26204.502    125.88376   -26330.386    576.63331 
   25000    312.03344   -26181.676    135.79641   -26317.472     3254.437 
   25200     295.7007   -26191.806    128.68843   -26320.494   -2760.3881 
   25400    284.16469   -26187.143    123.66798   -26310.811    2346.2118 
   25600    305.31796   -26175.486    132.87385    -26308.36   -631.54754 
   25800    285.57451   -26200.635    124.28153   -26324.916   -250.19313 
   26000    324.03048   -26177.158     141.0175   -26318.176   -351.06102 
   26200    287.31893   -26192.067     125.0407   -26317.107    362.62756 
   26400     335.0882   -26187.103     145.8298   -26332.933   -2210.0168 
   26600    351.01517   -26157.621     152.7612   -26310.383   -589.43977 
   26800    279.47925   -26184.487    121.62888   -26306.115    -2646.196 
   27000     276.1368   -26194.349    120.17426   -26314.523     518.7785 
   27200    279.89472   -26208.419     121.8097   -26330.229    1102.0578 
   27400    309.25586   -26183.919    134.58761   -26318.506   -2333.5909 
   27600     312.5669   -26194.657    136.02857   -26330.685    2107.2894 
   27800    309.95637   -26195.218    134.89248   -26330.111    172.72467 
   28000    297.85818    -26184.36    129.62736   -26313.988    1939.5087 
   28200    298.87761   -26189.869    130.07102    -26319.94   -1913.6232 
   28400    334.04046   -26159.037    145.37383   -26304.411   -2808.3941 
   28600    286.28293   -26194.111    124.58983   -26318.701     362.3399 
   28800    299.54961   -26191.122    130.36347   -26321.485   -1668.9723 
   29000     271.4823   -26203.554    118.14863   -26321.702    1481.1013 
   29200    315.51829   -26189.233    137.31301   -26326.546    1750.2612 
   29400     289.9393   -26190.167    126.18108   -26316.348    4399.0489 
   29600    283.10187   -26192.981    123.20544   -26316.186   -834.28957 
   29800    316.28271   -26180.947    137.64569   -26318.592    1847.8375 
   30000    314.99234   -26199.928    137.08412   -26337.012   -2390.7744 
   30200    319.50679    -26196.33     139.0488   -26335.379    6012.5334 
   30400     290.0287   -26201.031    126.21999   -26327.251    2136.8267 
   30600    277.97419   -26198.709    120.97389   -26319.683   -1722.4693 
   30800    319.82121   -26183.848    139.18564   -26323.034   -2934.3097 
   31000    284.68585   -26207.107    123.89479   -26331.002    22.797874 
   31200     300.9748   -26194.321    130.98371   -26325.305    2456.2557 
   31400    300.67125   -26186.418    130.85161    -26317.27   -3660.0048 
   31600    316.47337   -26169.621    137.72866    -26307.35   -1895.7223 
   31800    273.12142     -26194.6    118.86197   -26313.462   -1428.6407 
   32000    330.54234   -26192.802    143.85145   -26336.653   -1650.0615 
   32200     357.3131   -26162.296    155.50204   -26317.798    4125.7579 
   32400    307.10023   -26187.277    133.64949   -26320.927    3464.4285 
   32600    272.24532   -26195.397    118.48069   -26313.878   -770.42198 
   32800    303.62863   -26167.609    132.13865   -26299.748   -847.24975 
   33000    289.49065   -26191.477    125.98583   -26317.463    1388.7914 
   33200    312.05611   -26185.064    135.80628    -26320.87    2288.2396 
   33400    321.75707   -26163.916    140.02812   -26303.944   -200.62533 
   33600    296.09128   -26193.589    128.85841   -26322.448   -4962.8414 
   33800    273.01839   -26193.884    118.81713   -26312.701    1158.7517 
   34000    306.85721   -26175.062    133.54373   -26308.605    108.49643 
   34200    312.23265   -26185.132    135.88311   -26321.015   -1840.5679 
   34400    300.36931    -26206.74     130.7202    -26337.46   -537.69504 
   34600    295.95615   -26194.274     128.7996   -26323.074    8930.4723 
   34800    307.42208   -26181.729    133.78955   -26315.518   -3156.1919 
   35000    296.95726   -26197.883    129.23529   -26327.118   -3955.2715 
   35200    278.52231   -26198.755    121.21243   -26319.967    3891.7248 
   35400    305.07008   -26196.246    132.76597   -26329.012    2732.9961 
   35600    297.00312    -26199.87    129.25524   -26329.125   -1786.8944 
   35800    315.08948   -26185.918     137.1264   -26323.045    -2394.675 
   36000    288.97941   -26205.565    125.76334   -26331.328    1065.1185 
   36200     281.1699   -26201.443    122.36465   -26323.807   -202.18114 
   36400    309.90393   -26190.313    134.86965   -26325.182    3979.2581 
   36600    304.35254   -26191.295     132.4537   -26323.749    5666.5206 
   36800    360.87613   -26163.918    157.05267   -26320.971    482.60561 
   37000    271.55418   -26195.286    118.17991   -26313.466    417.18589 
   37200    279.28718   -26183.062     121.5453   -26304.607    2033.8182 
   37400    290.19619   -26202.042    126.29288   -26328.335   -3161.9642 
   37600    285.95188   -26200.878    124.44576   -26325.324   -4689.6944 
   37800    295.17662   -26195.946    128.46035   -26324.406    -3914.139 
   38000    271.60592   -26191.471    118.20242   -26309.674   -261.27447 
   38200    312.48969   -26166.038    135.99497   -26302.033    2359.1635 
   38400    273.69609   -26196.125    119.11206   -26315.237   -4614.3241 
   38600    306.61138   -26192.839    133.43674   -26326.275    1152.1647 
   38800    343.00727   -26163.814    149.27617   -26313.091    1591.4075 
   39000    273.82768   -26191.958    119.16933   -26311.127      924.613 
   39200    299.06672   -26186.492    130.15332   -26316.646   -1226.8262 
   39400    359.50133   -26155.419    156.45436   -26311.874    3269.3687 
   39600    300.44098   -26189.188    130.75139   -26319.939    147.93886 
   39800    288.24971   -26198.719    125.44578   -26324.165   -1085.7227 
   40000    327.54776   -26172.391    142.54822    -26314.94   -2243.8031 
   40200    304.95717   -26196.763    132.71683    -26329.48   -2273.1093 
   40400    307.75495   -26195.825    133.93442   -26329.759     3448.155 
   40600     322.9751   -26170.944     140.5582   -26311.503    3359.2878 
   40800    309.84881   -26188.703    134.84567   -26323.548    810.56388 
   41000     295.1385   -26192.048    128.44376   -26320.492    4138.1676 
   41200    289.08029   -26204.205    125.80724   -26330.012    746.61579 
   41400    307.10592   -26195.779    133.65196    -26329.43   -790.92577 
   41600    320.79559   -26177.106    139.60969   -26316.716    4422.5165 
   41800     318.2509   -26194.757    138.50224   -26333.259    1745.5532 
   42000    294.30364   -26191.139    128.08043    -26319.22    6368.9544 
   42200    324.91701   -26166.175    141.40332   -26307.578    4321.8299 
   42400    317.30471   -26195.766    138.09046   -26333.857    3861.7025 
   42600    313.99843   -26206.643    136.65157   -26343.294    4349.1553 
   42800    327.84007   -26175.993    142.67543   -26318.669    3073.1524 
   43000    302.11673   -26183.596    131.48068   -26315.077   -1703.2146 
   43200    273.49171   -26214.258    119.02312   -26333.281    5096.7842 
   43400    286.94343   -26195.465    124.87728   -26320.342    1548.8237 
   43600    281.22331   -26197.654     122.3879   -26320.042   -3204.0905 
   43800    304.43586   -26189.771    132.48996   -26322.261    562.24597 
   44000    334.29685   -26173.542    145.48541   -26319.027    5649.1865 
   44200    324.23145     -26198.5    141.10497   -26339.605    457.10116 
   44400    306.73704   -26192.004    133.49143   -26325.495   -2141.0418 
   44600    336.40316   -26160.781    146.40207   -26307.183   -947.16406 
   44800    311.68736    -26181.55     135.6458   -26317.196   -1066.4556 
   45000     273.9847   -26199.724    119.23767   -26318.962    1330.7024 
   45200      316.233   -26165.846    137.62406    -26303.47   -117.65071 
   45400    302.53346    -26178.85    131.66204   -26310.512    2365.2058 
   45600    279.16977   -26203.101     121.4942   -26324.595   -150.68807 
   45800    310.23784   -26178.293    135.01497   -26313.308    67.042493 
   46000    310.09866   -26188.784     134.9544   -26323.738    8027.2848 
   46200    296.21639    -26204.92    128.91286   -26333.833     1337.648 
   46400    306.98732   -26176.912    133.60035   -26310.512   -1929.5135 
   46600    308.58724   -26168.634    134.29663   -26302.931    -3283.652 
   46800    296.72337   -26194.077     129.1335    -26323.21   -6377.9652 
   47000    298.70929   -26190.252    129.99776    -26320.25    2941.7397 
   47200     268.8322   -26211.874    116.99531   -26328.869   -4330.9353 
   47400    323.11378   -26182.569    140.61856   -26323.188   -2549.3214 
   47600      299.832   -26191.328    130.48637   -26321.814   -5007.3598 
   47800    300.55125   -26203.831    130.79938   -26334.631    1179.5531 
   48000    292.69491   -26209.093    127.38032   -26336.473    1755.4418 
   48200    316.52715   -26184.597    137.75207   -26322.349   -1849.4028 
   48400    302.97849   -26200.813    131.85571   -26332.669   -529.66228 
   48600     252.2272   -26217.846    109.76884   -26327.615    1673.5429 
   48800    290.42587   -26188.181    126.39283   -26314.574   -1217.9204 
   49000    301.42165   -26183.728    131.17818   -26314.907   -1328.5349 
   49200    276.27773   -26205.594    120.23559    -26325.83   -3185.0141 
   49400      341.314   -26168.485    148.53926   -26317.024    2892.4055 
   49600      310.653   -26187.834    135.19565    -26323.03    5501.7686 
   49800     304.3272    -26194.33    132.44267   -26326.772    6304.5852 
   50000    350.68727   -26163.879    152.61849   -26316.497    3832.0286 
   50200    301.80624   -26190.955    131.34555   -26322.301    692.76964 
   50400    300.92533   -26192.845    130.96218   -26323.807    936.82953 
   50600    331.31845   -26173.036    144.18922   -26317.225    1086.9153 
   50800    306.83452   -26188.931    133.53385   -26322.464    3648.1487 
   51000     265.9322   -26197.827    115.73323    -26313.56   -4925.1731 
   51200    334.53478   -26166.006    145.58895   -26311.594   -2244.9756 
   51400    303.89942    -26180.32     132.2565   -26312.577    5601.7637 
   51600    304.66233   -26197.927    132.58852   -26330.515   -153.78587 
   51800    260.09896   -26217.636    113.19461    -26330.83    528.14359 
   52000    289.22372   -26189.786    125.86966   -26315.656    3071.6507 
   52200    291.38595   -26184.396    126.81066   -26311.206   -5959.2394 
   52400     277.0078   -26202.496    120.55332   -26323.049   -6329.8901 
   52600    294.47964   -26194.051    128.15703   -26322.208   -7998.9682 
   52800     313.3418    -26172.29    136.36581   -26308.656    920.60075 
   53000    298.15509   -26196.722    129.75658   -26326.478    5538.0779 
   53200    291.88024   -26183.323    127.02577   -26310.348   -3676.6555 
   53400    321.10391   -26161.268    139.74386   -26301.011   -1495.5198 
   53600    286.33628   -26197.624    124.61305   -26322.237    1444.0901 
   53800    309.24987   -26190.854    134.58501   -26325.439     3854.545 
   54000    299.47578   -26188.874    130.33134   -26319.205    1584.2304 
   54200    280.41808   -26189.807    122.03746   -26311.845    140.16558 
   54400    317.29582   -26182.494    138.08659   -26320.581    -1829.488 
   54600    311.94998   -26166.895    135.76009   -26302.655    2520.6204 
   54800    282.10515    -26198.36    122.77167   -26321.132    689.94366 
   55000    317.14307   -26177.436    138.02012   -26315.456    1870.3605 
   55200    327.42292   -26177.841    142.49389   -26320.335    -1304.724 
   55400    322.04335   -26191.958    140.15271   -26332.111   -8685.9571 
   55600    274.51389   -26201.254    119.46797   -26320.722   -4314.7367 
   55800    303.85168   -26190.463    132.23572   -26322.698   -3760.1141 
   56000    297.81453   -26178.662    129.60837   -26308.271   -1956.6974 
   56200    268.13366   -26200.094     116.6913   -26316.785    -773.6576 
   56400    293.28187    -26198.68    127.63576   -26326.316    2189.4132 
   56600    299.76175   -26178.828    130.45579   -26309.284     7448.494 
   56800    367.41778   -26157.836    159.89958   -26317.736   -1642.1579 
   57000    278.72451   -26185.039    121.30042   -26306.339   -1170.3959 
   57200    293.18008   -26188.832    127.59146   -26316.423    -1409.402 
   57400     280.4099   -26218.256     122.0339   -26340.289   -4057.5728 
   57600    290.40011   -26195.454    126.38162   -26321.836   -1465.2012 
   57800     273.9876   -26179.055    119.23893   -26298.294   -6266.6022 
   58000    342.02392   -26175.345    148.84822   -26324.194   -4075.7683 
   58200      308.079   -26199.265    134.07544    -26333.34   -5771.0803 
   58400     329.6979   -26183.827    143.48395   -26327.311      3264.78 
   58600    309.39743   -26165.332    134.64923   -26299.982    2627.8737 
   58800    277.95945   -26196.155    120.96747   -26317.123   -3057.2886 
   59000    282.83288   -26202.467    123.08838   -26325.555   -1039.3337 
   59200    267.03881   -26211.741    116.21483   -26327.956    2673.1101 
   59400    314.64358   -26186.158    136.93234    -26323.09   -1844.3716 
   59600    307.72235   -26195.059    133.92023    -26328.98   -36.423386 
   59800    287.72075   -26210.086    125.21557   -26335.302   -1563.8592 
   60000    288.33756   -26188.689    125.48401   -26314.173    1835.1728 
   60200    278.34441   -26185.999      121.135   -26307.134    4470.3251 
   60400    319.41015   -26171.934    139.00675   -26310.941    2374.3001 
   60600    305.91991   -26194.706    133.13582   -26327.842    5199.4855 
   60800     314.2476   -26187.197    136.76001   -26323.957    1485.1956 
   61000    301.06974    -26174.84    131.02503   -26305.865    1673.0668 
   61200    278.86318   -26201.665    121.36077   -26323.026   -1253.0753 
   61400    301.38134   -26180.336    131.16064   -26311.497     6671.717 
   61600    295.02277   -26189.561     128.3934   -26317.955   -2630.8891 
   61800    327.64515   -26197.986     142.5906   -26340.577   -1429.8202 
   62000    290.17272   -26185.063    126.28267   -26311.346    3713.9683 
   62200    302.34708   -26179.834    131.58092   -26311.415   -3357.0764 
   62400    309.32189   -26196.294    134.61635    -26330.91   -2119.5661 
   62600     313.8694   -26184.885    136.59542    -26321.48   -207.50064 
   62800    298.41982   -26180.364    129.87179   -26310.236   -646.70643 
   63000    271.45702   -26190.411    118.13762   -26308.548   -4582.0547 
   63200    320.84416   -26161.926    139.63082   -26301.557    2231.4853 
   63400    311.99703   -26175.351    135.78057   -26311.132   -4693.8656 
   63600    275.13696   -26191.832    119.73913   -26311.571    1311.7559 
   63800    259.15199   -26209.782     112.7825   -26322.564    -725.8201 
   64000    289.95031   -26191.557    126.18587   -26317.742    2151.1584 
   64200    298.87515   -26187.871    130.06995   -26317.941   -2535.3734 
   64400    284.94753   -26212.855    124.00867   -26336.864   -4531.8653 
   64600    261.49255   -26188.848    113.80111   -26302.649   -5701.6975 
   64800    306.49811   -26187.837    133.38745   -26321.224   -2087.8961 
   65000    291.72046   -26209.063    126.95624    -26336.02   -91.918044 
   65200    269.06519    -26218.94     117.0967   -26336.037    4744.9535 
   65400     320.3819   -26194.103    139.42965   -26333.533    1695.3838 
   65600    330.47176    -26178.17    143.82074   -26321.991   -2420.1884 
   65800    287.19008    -26194.49    124.98462   -26319.474    3388.6369 
   66000    298.04561   -26201.381    129.70893    -26331.09    2842.0798 
   66200    307.16167   -26177.202    133.67623   -26310.878   -495.49644 
   66400    329.49135   -26184.528    143.39407   -26327.922   -1657.3995 
   66600    265.88631   -26205.869    115.71326   -26321.582   -2513.4905 
   66800    320.70255   -26186.224    139.56919   -26325.793    2665.3302 
   67000    282.05744   -26195.753    122.75091   -26318.504   -1046.6037 
   67200    285.14079   -26213.284    124.09278   -26337.376   -1052.4076 
   67400    335.70579   -26179.719    146.09858   -26325.818   -546.71674 
   67600    284.70745   -26205.471    123.90419   -26329.375   -3734.1089 
   67800    312.84258   -26188.121    136.14855    -26324.27    3969.0611 
   68000    283.90873   -26186.328    123.55659   -26309.885    3263.0591 
   68200    341.25228   -26164.128     148.5124    -26312.64    3293.1322 
   68400    287.68973   -26197.123    125.20207   -26322.325   -412.97866 
   68600    301.61575   -26179.579    131.26265   -26310.842    1760.2642 
   68800    332.06064   -26162.129    144.51222   -26306.641    1398.1502 
   69000    308.94248   -26194.494    134.45123   -26328.946   -997.68585 
   69200    325.98296   -26177.129    141.86722   -26318.996    -4212.024 
   69400     314.1546   -26206.287    136.71954   -26343.006   -2688.4837 
   69600     327.5001   -26194.391    142.52747   -26336.919    4523.8132 
   69800    286.41063   -26195.406    124.64541   -26320.051   -6045.1791 
   70000    291.79849   -26181.078     126.9902   -26308.068     683.5453 
   70200    317.63829    -26180.72    138.23563   -26318.956    1548.9232 
   70400    291.41042    -26201.87    126.82131   -26328.691    711.99286 
   70600    315.67199   -26181.932     137.3799   -26319.312   -4334.4886 
   70800    320.24552   -26195.824    139.37029   -26335.194     287.9013 
   71000    298.00774   -26209.673    129.69245   -26339.366    3495.5491 
   71200    286.96841   -26199.696    124.88815   -26324.584   -3450.6332 
   71400     316.0371   -26181.139     137.5388   -26318.678        -4788 
   71600    316.35396   -26183.427    137.67669   -26321.104    3642.7395 
   71800    289.46205   -26212.192    125.97338   -26338.166   -2834.6491 
   72000    291.36167   -26189.109    126.80009   -26315.909   -2178.4102 
   72200    288.43883   -26179.734    125.52808   -26305.262    290.98012 
   72400    312.51243   -26185.944    136.00487   -26321.949    429.57947 
   72600    310.86176   -26208.028     135.2865   -26343.315   -582.17725 
   72800    317.72031   -26198.098    138.27133   -26336.369    2279.0609 
   73000    303.82462   -26184.841    132.22395   -26317.065   -5639.4779 
   73200    285.16869   -26208.908    124.10492   -26333.013   -8293.2375 
   73400    317.90675   -26180.903    138.35247   -26319.255   -2322.5944 
   73600    310.25923   -26178.354    135.02428   -26313.379   -3368.8274 
   73800    268.48856   -26200.902    116.84575   -26317.748    3739.9273 
   74000    295.70391   -26174.662    128.68983   -26303.352   -3220.1333 
   74200    310.84942   -26185.489    135.28113    -26320.77   -18.245182 
   74400    292.49852   -26192.521    127.29485   -26319.816   -1226.8684 
   74600    340.00543   -26174.093    147.96977   -26322.063   -2398.4978 
   74800    315.54516   -26187.431    137.32471   -26324.756    -5276.559 
   75000    295.45387   -26206.694    128.58101   -26335.275   -4354.0273 
   75200    327.78895   -26174.256    142.65318   -26316.909    1432.8986 
   75400    297.70615   -26194.913     129.5612   -26324.474     894.6879 
   75600    290.19259   -26197.126    126.29131   -26323.418    -4021.074 
   75800    328.87668    -26179.24    143.12656   -26322.367   -1708.0456 
   76000    305.68005   -26181.234    133.03143   -26314.265   -249.99836 
   76200    307.07365   -26201.889    133.63792   -26335.527   -1548.3992 
   76400    288.56395   -26207.478    125.58253    -26333.06   -438.29055 
   76600     297.4871   -26191.392    129.46587   -26320.858   -334.85521 
   76800    289.79009   -26195.742    126.11614   -26321.858    2848.5434 
   77000    316.42838   -26162.502    137.70908   -26300.211   -516.40774 
   77200    294.54115   -26186.624     128.1838   -26314.808   -720.62015 
   77400    315.78023   -26194.585    137.42701   -26332.012    784.45047 
   77600    275.94972   -26209.442    120.09284   -26329.535    5813.4251 
   77800    296.89003   -26192.011    129.20603   -26321.218   -2670.6075 
   78000    330.67403   -26180.453    143.90877   -26324.362   -3651.6553 
   78200     264.2081   -26210.199    114.98291   -26325.182   -2353.9318 
   78400    290.79112   -26210.984    126.55179   -26337.535   -609.61403 
   78600    291.01227   -26196.379    126.64804   -26323.027    -2053.753 
   78800    306.24362   -26187.484    133.27669   -26320.761    1669.7565 
   79000    327.97194   -26163.632    142.73282   -26306.364   -4694.6246 
   79200    256.86324   -26191.631    111.78644   -26303.417   -771.81527 
   79400    310.86604   -26179.794    135.28836   -26315.082   -319.64118 
   79600    292.16672   -26196.121    127.15045   -26323.271   -5144.1919 
   79800    323.65593   -26196.044     140.8545   -26336.898    3143.5059 
   80000    341.64573   -26167.461    148.68363   -26316.145   -1663.8489 
   80200    368.53802   -26165.929    160.38711   -26326.316   -3092.4545 
   80400    318.56211   -26195.103    138.63768   -26333.741    1944.2156 
   80600    298.22117   -26197.207    129.78533   -26326.992    545.90335 
   80800    329.38113   -26181.553     143.3461   -26324.899   -5478.1136 
   81000    254.42485   -26203.118    110.72526   -26313.844   -2985.0288 
   81200    314.73124   -26182.291    136.97049   -26319.262   -6876.9063 
   81400    274.36574   -26179.544     119.4035   -26298.948    2065.3349 
   81600    299.61805     -26194.8    130.39326   -26325.193    62.562562 
   81800    288.25844   -26207.471    125.44958   -26332.921   -5056.3715 
   82000    318.42374   -26174.526    138.57746   -26313.103    386.70886 
   82200    284.90264   -26198.109    123.98913   -26322.098    57.232548 
   82400    288.48928   -26192.675    125.55004   -26318.225   -1594.1058 
   82600    332.21276   -26176.739    144.57842   -26321.317   -3363.8309 
   82800    302.37392   -26195.722    131.59261   -26327.314   -1535.9918 
   83000    276.58406   -26202.474     120.3689   -26322.842    550.17298 
   83200    331.86989   -26174.849     144.4292   -26319.278   -1608.9076 
   83400    279.37494   -26197.931    121.58349   -26319.515    1971.0029 
   83600    308.60724   -26186.098    134.30534   -26320.403    1765.0724 
   83800    303.61263   -26183.702    132.13169   -26315.833    361.75584 
   84000    302.82544   -26200.365    131.78911   -26332.154   -3538.4389 
   84200    287.78659   -26210.596    125.24423    -26335.84    917.83481 
   84400    281.15929   -26190.878    122.36004   -26313.238   -1877.0875 
   84600    306.94057   -26179.282       133.58   -26312.862    4025.4855 
   84800    301.68348   -26197.933    131.29213   -26329.225    820.63686 
   85000    341.25683   -26162.989    148.51438   -26311.503    -1746.191 
   85200     300.7522   -26197.191    130.88684   -26328.077   -4566.5671 
   85400    269.40402   -26198.195    117.24416   -26315.439      3700.12 
   85600    317.74413   -26180.551    138.28169   -26318.832    145.67631 
   85800    277.81983   -26200.789    120.90671   -26321.696    504.17794 
   86000    306.05487   -26176.403    133.19455   -26309.598   -588.39592 
   86200     300.9583   -26188.504    130.97653    -26319.48    4104.2924 
   86400    271.17491   -26207.528    118.01485   -26325.543    3888.6333 
   86600    271.74164   -26211.668    118.26149    -26329.93   -5104.8477 
   86800    282.90568   -26181.654    123.12006   -26304.774   -4233.5985 
   87000    295.15011   -26184.528    128.44882   -26312.977    2616.2751 
   87200    277.73793   -26205.646    120.87107   -26326.517   -1847.9789 
   87400    310.90246   -26187.415    135.30421   -26322.719   -4642.7747 
   87600     296.0969   -26194.771    128.86086   -26323.632   -1316.8237 
   87800    271.26636   -26194.771    118.05465   -26312.825    417.56645 
   88000    320.24733   -26175.576    139.37108   -26314.947    1984.4494 
   88200    297.32803   -26185.668    129.39664   -26315.064   -1035.3037 
   88400    320.03612   -26193.049    139.27917   -26332.328   -590.03161 
   88600    281.23539   -26215.515    122.39316   -26337.908    634.07327 
   88800    300.48027   -26192.389    130.76849   -26323.158    2212.8144 
   89000    307.04021   -26186.896    133.62337    -26320.52    8235.3593 
   89200    283.40721   -26213.646    123.33833   -26336.985    7015.9982 
   89400     301.6178   -26192.285    131.26354   -26323.548   -2398.9814 
   89600    313.56144   -26188.265     136.4614   -26324.727    1423.8219 
   89800    325.47077     -26186.7    141.64432   -26328.345   -264.04412 
   90000    263.87843   -26210.718    114.83943   -26325.557     -904.479 
   90200    289.73574   -26179.193    126.09249   -26305.286   -5906.5087 
   90400    305.04093   -26179.652    132.75329   -26312.406    39.966758 
   90600    278.37748   -26213.724     121.1494   -26334.874    4685.6102 
   90800    304.68225   -26205.073    132.59719    -26337.67    298.87134 
   91000    266.17527   -26189.749    115.83902   -26305.588   -2286.5718 
   91200    341.76428   -26182.814    148.73522   -26331.549   -5315.8291 
   91400     296.9878   -26193.013    129.24858   -26322.261    2474.8811 
   91600    332.17538    -26169.23    144.56215   -26313.792    4282.0171 
   91800    315.24614   -26174.444    137.19457   -26311.638   -4446.7818 
   92000    282.67451   -26193.848    123.01946   -26316.868   -1677.8771 
   92200    327.81794   -26180.529     142.6658   -26323.195    4772.5993 
   92400    325.61717   -26180.462    141.70803    -26322.17     562.0365 
   92600    290.61115   -26192.662    126.47347   -26319.135   -2499.6517 
   92800    336.57451   -26184.809    146.47664   -26331.286    -2975.899 
   93000    291.82176   -26214.415    127.00033   -26341.416   -206.62213 
   93200    279.57211    -26192.44     121.6693   -26314.109   -2491.7755 
   93400    276.33491   -26184.565    120.26047   -26304.826   -2021.9783 
   93600     292.8917   -26176.325    127.46596   -26303.791    -1909.329 
   93800    294.02321   -26197.311    127.95839   -26325.269   -2665.0944 
   94000     293.8406   -26197.418    127.87892   -26325.297   -1061.0288 
   94200    320.41891   -26186.106    139.44575   -26325.551   -2075.1748 
   94400    290.48518   -26215.368    126.41865   -26341.787   -352.10131 
   94600    302.21376   -26188.248    131.52291   -26319.771    1829.7749 
   94800    294.60192   -26187.611    128.21024   -26315.821    3791.1617 
   95000    279.38443   -26217.471    121.58762   -26339.058   -3062.4292 
   95200    300.06363   -26204.659    130.58717   -26335.246   -2969.7698 
   95400      333.711   -26186.275    145.23045   -26331.505    3899.7998 
   95600     312.6833   -26199.062    136.07923   -26335.141    7101.3262 
   95800    305.15915   -26196.291    132.80473   -26329.096   -3096.5597 
   96000    298.47626   -26181.991    129.89635   -26311.887   -1410.3083 
   96200    309.85645    -26207.11    134.84899   -26341.959    -1479.507 
   96400    278.48267   -26208.875    121.19517    -26330.07    -649.7039 
   96600    300.05823    -26193.09    130.58482   -26323.675   -287.39029 
   96800    299.91337    -26186.62    130.52178   -26317.142   -2420.7397 
   97000    262.42751   -26209.963      114.208   -26324.171    3422.8473 
   97200    326.05024   -26178.884     141.8965   -26320.781   -1702.4543 
   97400    306.94149   -26186.849     133.5804    -26320.43    458.72301 
   97600    311.99731   -26205.345    135.78069   -26341.126   -4139.7823 
   97800    302.90872   -26185.201    131.82535   -26317.026    516.31585 
   98000    310.89284   -26179.368    135.30002   -26314.668    -76.58966 
   98200    267.05824   -26199.426    116.22328   -26315.649     2129.211 
   98400    358.85487   -26164.153    156.17302   -26320.326   -3685.4617 
   98600     306.4957   -26196.116     133.3864   -26329.502    1080.0453 
   98800    292.35505   -26200.558    127.23241   -26327.791    900.56211 
   99000    320.02422    -26175.64    139.27399   -26314.914   -643.47253 
   99200     292.1143   -26181.251    127.12764   -26308.379   -2090.9837 
   99400    272.95016   -26205.098    118.78743   -26323.885    2045.6168 
   99600    297.60552   -26210.441    129.51741   -26339.958    -6899.922 
   99800    292.03962    -26193.33    127.09514   -26320.425   -2936.3706 
  100000    341.55837   -26186.281    148.64561   -26334.927   -1492.4421 
  100200      276.217   -26209.931    120.20916    -26330.14    5061.4407 
  100400    285.49504   -26191.122    124.24695   -26315.369   -1187.2561 
  100600    306.98803   -26190.784    133.60066   -26324.384   -2985.6754 
  100800     268.8286   -26221.119    116.99374   -26338.113   -3124.1625 
  101000    311.02585   -26186.826    135.35791   -26322.183   -4625.7591 
  101200    302.64893    -26194.63    131.71229   -26326.342    4079.2265 
  101400    281.92092   -26203.153    122.69149   -26325.844     4232.903 
  101600    314.84813   -26176.562    137.02136   -26313.583   -3897.9925 
  101800    277.28997   -26203.058    120.67612   -26323.734    2895.0291 
  102000    306.61052   -26187.516    133.43637   -26320.952   -2611.4034 
  102200    303.00301   -26184.257    131.86638   -26316.123    2763.0956 
  102400    313.83386   -26192.456    136.57995   -26329.036    3826.6147 
  102600    276.53923   -26197.013    120.34939   -26317.362   -5041.7977 
  102800    312.25748    -26188.65    135.89391   -26324.544   -3510.1528 
  103000    311.52797   -26178.492    135.57643   -26314.068    2264.4891 
  103200    280.86838   -26201.134    122.23343   -26323.367    1128.9413 
  103400    318.48172   -26183.484    138.60269   -26322.086    3416.3085 
  103600    285.90548    -26167.61    124.42557   -26292.035    3468.4253 
  103800    295.25403   -26179.596    128.49404    -26308.09   -8204.5257 
  104000    285.22437   -26201.312    124.12915   -26325.441   -2670.4467 
  104200    292.93512   -26194.708    127.48486   -26322.193    1210.2166 
  104400    324.02639   -26185.289    141.01572   -26326.304   -3413.5587 
  104600    286.01498   -26204.577    124.47322    -26329.05    4350.3763 
  104800    307.93583   -26196.624    134.01314   -26330.637    4666.0242 
  105000    287.01619   -26185.781    124.90895    -26310.69   -7008.2777 
  105200    290.91423   -26191.193    126.60537   -26317.798   -2272.5482 
  105400    290.91117   -26212.952    126.60404   -26339.556   -1843.2729 
  105600    330.89594   -26188.233    144.00534   -26332.238   -389.96967 
  105800    313.73673   -26185.816    136.53768   -26322.354    1208.6217 
  106000    349.27471   -26163.813    152.00375   -26315.816    2520.5626 
  106200    293.98117   -26194.085     127.9401   -26322.025    95.896447 
  106400    305.75537   -26195.039    133.06421   -26328.103   -1658.2217 
  106600    325.52433   -26181.302    141.66762   -26322.969    -5605.708 
  106800    328.18432   -26181.178    142.82525   -26324.003    1068.9723 
  107000    279.68579   -26208.753    121.71877   -26330.472    2296.4491 
  107200    328.95883   -26182.345    143.16231   -26325.507    1739.6864 
  107400    328.57704   -26190.906    142.99616   -26333.902    3693.9265 
  107600     302.6231   -26200.524    131.70105   -26332.225    1109.2169 
  107800    337.31965   -26170.008    146.80093   -26316.809    300.39359 
  108000    285.42794   -26196.914    124.21775   -26321.132   -2226.0403 
  108200    319.24239   -26194.759    138.93374   -26333.693   -1081.8701 
  108400    302.20559   -26185.525    131.51935   -26317.044    2914.6379 
  108600    313.66538   -26170.277    136.50663   -26306.783   -4105.5937 
  108800    280.84874   -26199.264    122.22488   -26321.489    -1820.328 
  109000    309.29097   -26182.083    134.60289   -26316.686    7847.9782 
  109200    326.50848   -26180.901    142.09592   -26322.997    3479.1633 
  109400    276.09869    -26197.24    120.15767   -26317.397    1015.0125 
  109600    330.58329   -26168.639    143.86927   -26312.508    3472.6014 
  109800    292.74732   -26189.568    127.40313   -26316.971    1314.0463 
  110000    304.09213   -26192.608    132.34037   -26324.948    -3036.568 
  110200     325.6983   -26168.049    141.74334   -26309.792    4704.9611 
  110400    299.41826     -26192.5    130.30631   -26322.806    1577.9801 
  110600    303.09488   -26188.194    131.90637     -26320.1   -858.22915 
  110800    329.51701   -26169.128    143.40523   -26312.533    910.54604 
  111000     282.6763   -26187.056    123.02024   -26310.077   -3551.7493 
  111200    299.36709   -26195.295    130.28404   -26325.579   -140.50348 
  111400    298.20194   -26161.534    129.77697   -26291.311   -3544.2078 
  111600    301.07764   -26188.309    131.02847   -26319.337   -1492.1546 
  111800    311.21107    -26195.25    135.43852   -26330.688    2658.4169 
  112000    277.80315   -26207.766    120.89945   -26328.666     2145.758 
  112200    276.15528    -26192.53     120.1823   -26312.712    -2250.542 
  112400    303.01628   -26183.082    131.87216   -26314.954   -6007.3775 
  112600    276.76356   -26214.568    120.44702   -26335.015    1296.0315 
  112800    279.45226   -26191.497    121.61714   -26313.114   -1139.9609 
  113000    315.15023   -26179.501    137.15283   -26316.654    276.75122 
  113200    274.89709   -26204.169    119.63474   -26323.804   -3740.1085 
  113400    324.12419   -26189.538    141.05828   -26330.596   -1418.3702 
  113600    297.82622   -26195.968    129.61346   -26325.581    1517.6796 
  113800    303.70909   -26211.396    132.17367    -26343.57     672.1689 
  114000    310.09827   -26177.864    134.95423   -26312.818    4571.0475 
  114200    285.70931   -26196.688     124.3402   -26321.029   -830.62672 
  114400    283.46713   -26196.699     123.3644   -26320.064   -1892.0954 
  114600    300.31693   -26187.278    130.69741   -26317.975    5235.5352 
  114800    312.59974   -26156.765    136.04286   -26292.808    3458.9525 
  115000    296.98797   -26185.363    129.24865   -26314.612    441.07363 
  115200    297.18113   -26192.962    129.33271   -26322.294   -1270.0955 
  115400    275.18794   -26201.828    119.76131   -26321.589    9633.6922 
  115600    322.35985   -26176.787    140.29045   -26317.078    2303.9204 
  115800    321.13703     -26189.1    139.75828   -26328.858   -1151.4144 
  116000    303.72729   -26201.157    132.18159   -26333.339    3327.8426 
  116200    291.28561   -26206.993    126.76699    -26333.76    4385.4306 
  116400    323.63001   -26176.021    140.84322   -26316.864    2619.6886 
  116600    280.73263   -26191.612    122.17435   -26313.786   -2501.9479 
  116800    270.10388   -26215.656    117.54874   -26333.205   -1471.5273 
  117000    302.13515   -26197.001    131.48869    -26328.49     732.2883 
  117200    302.62097   -26186.464    131.70012   -26318.164   -857.25699 
  117400    297.17381   -26193.861    129.32953   -26323.191    1159.0252 
  117600    292.31699   -26193.328    127.21585   -26320.543   -3474.9169 
  117800    275.40982   -26204.351    119.85788   -26324.209   -5361.8228 
  118000    303.26937   -26177.632    131.98231   -26309.614   -6383.0477 
  118200    298.22891   -26193.389    129.78871   -26323.178   -6472.3369 
  118400    268.74133   -26190.597    116.95576   -26307.553   -6745.7429 
  118600    298.81119   -26188.927    130.04211   -26318.969     129.9222 
  118800     260.2179   -26205.417    113.24638   -26318.663    574.23413 
  119000    297.70966     -26197.2    129.56273   -26326.763   -1630.9286 
  119200    321.61659   -26179.383    139.96698    -26319.35     1473.774 
  119400    295.70082   -26208.597    128.68848   -26337.286   -59.478067 
  119600    310.70395   -26199.825    135.21782   -26335.043   -1185.0148 
  119800     332.6413   -26176.087    144.76492   -26320.852    2198.8846 
  120000    293.74813   -26188.549    127.83868   -26316.387   -2467.2742 
  120200    280.55059   -26184.929    122.09513   -26307.024    27.958871 
  120400    329.56214   -26162.265    143.42487    -26305.69   -1700.5038 
  120600    278.85472    -26192.59    121.35709   -26313.947     4020.524 
  120800    284.33732    -26190.71    123.74311   -26314.453     3051.062 
  121000    327.41016    -26165.63    142.48833   -26308.119    912.61124 
  121200     274.4588   -26197.592    119.44399   -26317.036    278.57338 
  121400    292.37438   -26191.312    127.24082   -26318.553   -2371.5017 
  121600    300.61353   -26177.603    130.82649   -26308.429   -2768.7408 
  121800    281.01152   -26184.425    122.29573   -26306.721   -2415.6155 
  122000    277.92321   -26199.151     120.9517   -26320.103   -4876.1903 
  122200    313.15149   -26165.212    136.28299   -26301.495    4243.3969 
  122400    295.72487    -26188.94    128.69895   -26317.639   -289.00858 
  122600    271.19365   -26197.323    118.02301   -26315.346    1286.4893 
  122800    284.54237   -26190.361    123.83235   -26314.193    8305.8506 
  123000    313.41158   -26177.695    136.39618   -26314.091    3528.0391 
  123200    286.65478   -26199.798    124.75166   -26324.549    3914.1534 
  123400    315.13009   -26177.227    137.14407   -26314.371    402.97663 
  123600    275.08806   -26210.779    119.71785   -26330.497    363.27004 
  123800    302.45464    -26190.12    131.62773   -26321.748   -4399.4609 
  124000    310.59893   -26188.132    135.17212   -26323.304   -465.60072 
  124200    287.45001   -26211.542    125.09775    -26336.64    2088.6792 
  124400    302.93458   -26200.376    131.83661   -26332.213    -2325.877 
  124600    318.67733   -26183.772    138.68782    -26322.46    1381.2601 
  124800    322.87088   -26175.404    140.51285   -26315.917    3978.9925 
  125000    280.97482   -26200.475    122.27975   -26322.755    -2299.172 
  125200    326.84022   -26178.914     142.2403   -26321.155   -3727.7714 
  125400    289.26023   -26202.366    125.88555   -26328.252   -508.88779 
  125600    305.13846   -26190.132    132.79573   -26322.928   -146.24723 
  125800    296.24781   -26189.086    128.92653   -26318.012   -1759.7616 
  126000    245.95318   -26216.638     107.0384   -26323.676    1404.0348 
  126200     307.4571   -26194.561     133.8048   -26328.366     2401.493 
  126400    305.16691   -26188.891    132.80811   -26321.699    733.11135 
  126600    346.06124   -26169.335    150.60525    -26319.94   -1864.2522 
  126800    298.12054   -26196.132    129.74154   -26325.873    3098.8535 
  127000    314.17371   -26177.525    136.72785   -26314.252   -184.78432 
  127200    303.87085   -26171.875    132.24407    -26304.12      629.397 
  127400    290.56507   -26189.725    126.45342   -26316.179     5295.488 
  127600    316.85293   -26181.833    137.89384   -26319.727   -190.29606 
  127800    302.75981     -26175.9    131.76055    -26307.66    2916.1449 
  128000    308.46929   -26196.835     134.2453    -26331.08    3773.8371 
  128200    309.56804   -26182.537    134.72347    -26317.26    4376.5806 
  128400     280.3017   -26191.191    121.98682   -26313.178    1509.6597 
  128600    303.45698   -26200.363    132.06395   -26332.427    3513.2195 
  128800    302.19485    -26172.61    131.51468   -26304.124   -1098.9348 
  129000    317.44641   -26165.487    138.15213   -26303.639    2162.9098 
  129200    286.89433   -26200.214    124.85592   -26325.069   -3995.9732 
  129400    296.17459   -26193.555    128.89467    -26322.45   -1542.8244 
  129600    317.67494   -26181.575    138.25158   -26319.827   -319.65593 
  129800    288.84186   -26208.766    125.70348   -26334.469   -1925.2739 
  130000    299.16752   -26189.103    130.19719     -26319.3   -1738.2254 
  130200    317.29636   -26175.944    138.08683   -26314.031   -233.67538 
  130400    293.82824    -26198.51    127.87354   -26326.384    5118.9488 
  130600    301.70829   -26182.857    131.30292    -26314.16    5445.4071 
  130800    270.76505   -26210.594    117.83648    -26328.43    178.77719 
  131000    303.78982   -26188.399     132.2088   -26320.608     4224.346 
  131200    304.37075   -26184.739    132.46162     -26317.2    296.88118 
  131400    317.68806   -26189.841    138.25729   -26328.098    3918.2385 
  131600    290.06647   -26218.167    126.23643   -26344.404   -1846.8115 
  131800    297.15219   -26192.148    129.32012   -26321.468   -629.48633 
  132000    292.03642   -26185.893    127.09374   -26312.986   -1668.5686 
  132200    262.00141   -26208.562    114.02256   -26322.585   -132.18828 
  132400    291.73889    -26186.92    126.96426   -26313.884     3119.912 
  132600    302.01917   -26185.574    131.43822   -26317.012    437.82277 
  132800    321.84066   -26181.587     140.0645   -26321.652   -486.78235 
  133000    319.02798   -26177.036    138.84042   -26315.877   -329.15544 
  133200    278.85871   -26194.228    121.35883   -26315.587    -1152.891 
  133400    310.27669   -26188.905    135.03188   -26323.937    6093.6095 
  133600    258.34399   -26214.242    112.43086   -26326.673   -1185.5647 
  133800    304.10092   -26186.985    132.34419   -26319.329   -4076.9882 
  134000    296.33645   -26187.442    128.96511   -26316.407    1493.0331 
  134200    283.73166   -26210.754    123.47953   -26334.234    628.43702 
  134400    319.66808   -26190.006      139.119   -26329.125    2843.9214 
  134600    301.33985   -26183.802    131.14258   -26314.944    753.30021 
  134800    276.57005   -26207.463    120.36281   -26327.826    3737.7523 
  135000    297.76709   -26215.566    129.58772   -26345.154   -1771.0866 
  135200    331.49173    -26188.82    144.26463   -26333.085    4874.1788 
  135400      305.861    -26205.07    133.11018   -26338.181    3919.1245 
  135600    355.31873   -26174.202     154.6341   -26328.836    1955.7336 
  135800    315.70022   -26192.175    137.39219   -26329.567    2212.1322 
  136000    292.49895   -26198.801    127.29504   -26326.096    665.75039 
  136200    318.75768   -26178.678    138.72279   -26317.401    4642.8804 
  136400    346.73192   -26165.288    150.89713   -26316.185    3447.1467 
  136600    277.06222   -26199.296      120.577   -26319.873    1524.8958 
  136800    311.57151   -26186.912    135.59538   -26322.507   -1479.3734 
  137000    332.54422   -26175.764    144.72267   -26320.487    2101.9744 
  137200     285.3221   -26205.866    124.17168   -26330.038    2329.1074 
  137400    321.58312   -26185.138    139.95242    -26325.09     3898.222 
  137600    299.49792   -26181.192    130.34098   -26311.533    6843.6535 
  137800    310.98542   -26193.629    135.34032   -26328.969    774.12076 
  138000     294.3586   -26201.903    128.10435   -26330.007   -1989.9916 
  138200    289.10993   -26185.834    125.82014   -26311.654   -3888.2696 
  138400    306.35251   -26184.665    133.32408    -26317.99    783.63616 
  138600    282.81191   -26206.632    123.07925   -26329.711    260.11285 
  138800     289.7863   -26197.844     126.1145   -26323.958   -2772.9028 
  139000    289.46112   -26175.174    125.97298   -26301.147   -808.40959 
  139200    290.93172   -26199.497    126.61298    -26326.11     466.5055 
  139400    300.59664   -26203.296    130.81914   -26334.115    844.00805 
  139600    319.87359   -26189.109    139.20843   -26328.317    1617.3108 
  139800    310.13822   -26175.868    134.97161   -26310.839     2173.385 
  140000    323.67602   -26169.693    140.86324   -26310.556    5822.2307 
  140200    296.16981   -26199.064    128.89259   -26327.957    1906.1667 
  140400    295.58806    -26202.42    128.63941   -26331.059   -712.51523 
  140600    331.22711   -26173.838    144.14946   -26317.988   -23.196733 
  140800    305.10423   -26177.837    132.78083   -26310.617     1983.819 
  141000    283.24085   -26195.666    123.26593   -26318.931   -2440.9705 
  141200    305.92914   -26186.744    133.13983   -26319.884    -1705.606 
  141400    330.02172   -26178.524    143.62488   -26322.149    1560.0507 
  141600    284.56167   -26203.262    123.84075   -26327.103    1077.1234 
  141800    345.51331   -26171.189    150.36679   -26321.555   -2848.0529 
  142000    300.67803   -26187.786    130.85456    -26318.64    1824.0406 
  142200    280.74811   -26195.022    122.18109   -26317.203    2678.7239 
  142400    245.56598    -26217.44    106.86989    -26324.31    2222.2084 
  142600    300.24334   -26185.064    130.66538    -26315.73    2376.3194 
  142800    274.70159   -26196.828    119.54965   -26316.377    -109.1645 
  143000    290.41303   -26178.628    126.38725   -26305.015   -4761.6412 
  143200    321.77392   -26185.248    140.03545   -26325.283   -5460.6335 
  143400    297.30686   -26196.328    129.38743   -26325.715   -1371.8417 
  143600    333.87932   -26168.837     145.3037   -26314.141    7254.2575 
  143800    284.85536   -26189.577    123.96856   -26313.545   -3810.0821 
  144000    289.67888   -26193.208    126.06775   -26319.275   -3824.1617 
  144200    273.61708   -26182.046    119.07768   -26301.124    1067.2507 
  144400    272.53922   -26203.251     118.6086   -26321.859   -538.60509 
  144600    303.57598   -26175.567    132.11574   -26307.683    1929.4615 
  144800    307.61128    -26177.98     133.8719   -26311.852   -2516.9721 
  145000    299.80441   -26194.705    130.47436    -26325.18    2103.7336 
  145200    284.18424   -26206.708    123.67649   -26330.384   -4160.2151 
  145400     341.1039   -26175.802    148.44783    -26324.25   -2652.5087 
  145600    288.61759   -26201.251    125.60588   -26326.857   -3937.3455 
  145800    297.51033   -26192.618    129.47598   -26322.094     278.0866 
  146000    332.12469   -26177.856    144.54009   -26322.396    1776.9859 
  146200    288.90125   -26198.193    125.72933   -26323.922    -1039.144 
  146400    304.36713    -26185.05    132.46005    -26317.51    -390.7492 
  146600    302.48199   -26180.109    131.63964   -26311.749    74.377063 
  146800    281.66201   -26196.536    122.57882   -26319.114   -983.73006 
  147000    300.49377   -26196.942    130.77437   -26327.717    3607.3744 
  147200    269.89828   -26208.389    117.45926   -26325.849   -27.380195 
  147400    319.58071   -26182.535    139.08097   -26321.616    3822.2656 
  147600    278.75312   -26193.094    121.31287   -26314.407    106.70684 
  147800    365.98284   -26163.809     159.2751   -26323.084   -2229.1606 
  148000    305.08856   -26187.881    132.77401   -26320.655   -345.58846 
  148200    303.22942   -26196.533    131.96492   -26328.498    5223.4716 
  148400    329.90343   -26166.133     143.5734   -26309.706   -4696.7647 
  148600    315.26019   -26193.685    137.20069   -26330.885   -3318.9636 
  148800    325.51243   -26192.039    141.66244   -26333.701    5498.7893 
  149000    273.88891   -26215.091    119.19598   -26334.287    1919.3628 
  149200    299.68895    -26191.87    130.42411   -26322.294     2468.348 
  149400    284.56159   -26188.842    123.84071   -26312.682   -1937.3903 
  149600    295.02761   -26185.033     128.3955   -26313.428    1443.0437 
  149800    313.09389   -26178.907    136.25792   -26315.165    2350.5032 
  150000    288.77035   -26203.876    125.67236   -26329.548    3309.6969 
  150200    323.06366   -26186.611    140.59674   -26327.208   -2352.2011 
  150400    248.21365   -26211.519    108.02215   -26319.541   -7336.7031 
  150600    293.36667   -26197.961    127.67267   -26325.634   -2557.2137 
  150800    311.49963   -26188.223     135.5641   -26323.787   -1126.5923 
  151000    278.73019   -26192.148    121.30289    -26313.45    529.28657 
  151200    347.88446   -26175.524    151.39872   -26326.922    236.00192 
  151400    305.48738   -26200.512    132.94758   -26333.459   -1302.8003 
  151600    313.54602   -26181.702    136.45468   -26318.156     2260.454 
  151800    329.97354   -26178.767    143.60391   -26322.371    2025.5733 
  152000    295.12237   -26197.763    128.43674     -26326.2    1523.9384 
  152200    324.74407   -26182.253    141.32806   -26323.581   -2795.7193 
  152400    296.07691   -26192.798    128.85216    -26321.65   -1912.7366 
  152600    303.71761   -26200.767    132.17738   -26332.944     1738.069 
  152800    315.46813   -26174.959    137.29118   -26312.251    3759.6173 
  153000    290.45974   -26207.861    126.40758   -26334.269   -4174.1912 
  153200    276.61537   -26198.394    120.38253   -26318.776   -2301.2151 
  153400    317.27895   -26181.208    138.07925   -26319.287   -3647.2501 
  153600    324.29159   -26185.389    141.13114    -26326.52    3247.4461 
  153800    281.99932   -26215.556    122.72561   -26338.282     5137.428 
  154000     309.6792   -26193.213    134.77185   -26327.985   -889.45137 
  154200    340.89732    -26186.73    148.35792   -26335.088    3383.1848 
  154400    284.10034   -26201.602    123.63998   -26325.242    10004.227 
  154600     328.2009   -26188.966    142.83246   -26331.798    10410.011 
  154800    341.88827   -26169.615    148.78918   -26318.404    2575.7815 
  155000    312.60431   -26184.132    136.04485   -26320.177    2150.8469 
  155200    287.68186   -26197.748    125.19865   -26322.947    390.60112 
  155400    320.65527   -26169.068    139.54862   -26308.616    93.809665 
  155600    343.48259   -26163.831    149.48303   -26313.314   -1300.7429 
  155800    313.91053   -26196.087    136.61332     -26332.7    1155.1735 
  156000    315.64162   -26193.795    137.36669   -26331.161   -122.69382 
  156200    325.81734   -26176.089    141.79514   -26317.884    1422.4014 
  156400    296.04172   -26186.749    128.83684   -26315.585    2863.9153 
  156600    317.03751   -26191.412    137.97418   -26329.386    4933.0923 
  156800     302.8716   -26187.385     131.8092   -26319.194   -2310.6158 
  157000    316.22562   -26209.392    137.62084   -26347.013   -2091.0082 
  157200    308.02476   -26186.774    134.05184   -26320.826   -2355.5463 
  157400    258.46035   -26204.023     112.4815   -26316.504   -357.02087 
  157600    272.53113   -26217.407    118.60507   -26336.012     3160.261 
  157800    320.08956   -26184.869    139.30242   -26324.171   -2630.2369 
  158000    297.04279   -26183.744    129.27251   -26313.017   -3223.3361 
  158200    292.72314    -26196.96     127.3926   -26324.353   -3561.7536 
  158400     293.1069   -26205.252    127.55962   -26332.811   -978.35408 
  158600      294.511   -26176.919    128.17068    -26305.09    1768.7931 
  158800    305.01112   -26194.678    132.74031   -26327.418    2356.9776 
  159000    295.06997   -26198.472    128.41394   -26326.886    4193.3746 
  159200    305.64991   -26165.221    133.01831   -26298.239    6202.2487 
  159400    305.63849   -26187.198    133.01334   -26320.212    2332.1046 
  159600    305.08962   -26195.274    132.77447   -26328.048    768.75015 
  159800    264.36809   -26217.595    115.05254   -26332.647    3885.7474 
  160000    299.46812   -26200.151    130.32801   -26330.479   -3934.9899 
  160200    291.62555   -26181.639    126.91494   -26308.554   -1006.6155 
  160400    254.67234   -26209.503    110.83296   -26320.336    3013.5456 
  160600    293.60719   -26199.208    127.77734   -26326.986    601.39167 
  160800    308.25641   -26185.284    134.15266   -26319.437    -2465.621 
  161000    266.14177   -26204.059    115.82444   -26319.883   -496.47938 
  161200    306.42106   -26191.612    133.35391   -26324.966    4188.8497 
  161400    289.85004    -26185.04    126.14224   -26311.182    3030.4332 
  161600    285.86686   -26215.692    124.40876   -26340.101    3184.8671 
  161800    294.11977   -26191.553    128.00042   -26319.553     3372.263 
  162000    302.32853   -26188.866    131.57285   -26320.439   -1710.3733 
  162200    310.30198   -26188.015    135.04289   -26323.058   -1392.9157 
  162400    298.13218   -26174.435    129.74661   -26304.182    2881.4113 
  162600    304.56698   -26199.911    132.54702   -26332.458    2648.6433 
  162800    304.32776   -26197.659    132.44291   -26330.102    3714.8893 
  163000    343.75826   -26173.857      149.603    -26323.46   -1865.3122 
  163200    308.76432   -26186.313     134.3737   -26320.687    397.96486 
  163400    291.14269    -26204.33    126.70479   -26331.034    5987.5589 
  163600     330.0445   -26181.553    143.63479   -26325.188    3343.6677 
  163800    291.15517   -26188.589    126.71022   -26315.299    3881.5178 
  164000    267.83892   -26217.106    116.56303   -26333.669    -2012.574 
  164200    285.80618   -26214.128    124.38236   -26338.511    3340.8877 
  164400    296.94404   -26193.231    129.22953    -26322.46    7630.4491 
  164600    330.72758   -26174.921    143.93207   -26318.853     2510.317 
  164800    283.84097   -26208.325     123.5271   -26331.852   -1914.5187 
  165000     303.1335   -26187.879    131.92318   -26319.802    539.11125 
  165200    292.38108   -26186.024    127.24374   -26313.268    -668.7164 
  165400    270.51809   -26221.596      117.729   -26339.325   -4564.7264 
  165600    297.52816   -26200.851    129.48374   -26330.335    48.102156 
  165800    323.51521   -26190.123    140.79326   -26330.916   -1566.0968 
  166000    349.19563   -26156.442    151.96933   -26308.411    237.67269 
  166200    320.82681   -26183.373    139.62327   -26322.996    -4677.095 
  166400    288.30718   -26192.881    125.47079   -26318.352   -1625.1106 
  166600    294.44345   -26194.973    128.14128   -26323.114    3037.0709 
  166800    300.53295   -26191.918    130.79142   -26322.709   -911.78203 
  167000    311.34291   -26173.255     135.4959   -26308.751   -1983.1368 
  167200    280.79514   -26201.796    122.20156   -26323.997    234.32561 
  167400    302.85441   -26188.278    131.80171    -26320.08    1242.9169 
  167600    320.04098   -26158.829    139.28128    -26298.11    640.53914 
  167800    319.55614   -26176.744    139.07028   -26315.814    -1155.541 
  168000    297.33226   -26200.072    129.39848    -26329.47    -578.0737 
  168200    302.99027    -26181.27    131.86084   -26313.131   -2442.4446 
  168400     289.1172   -26184.377    125.82331     -26310.2   -866.19128 
  168600    280.06257   -26201.049    121.88275   -26322.931    2330.5672 
  168800    298.34476   -26172.396    129.83912   -26302.235   -3818.5474 
  169000    316.63273   -26189.245    137.79801   -26327.043   -779.87187 
  169200     312.9703   -26200.798    136.20413   -26337.002    5276.6585 
  169400     331.6904   -26173.902    144.35109   -26318.253    5444.2926 
  169600    291.98697   -26203.044    127.07222   -26330.116    1461.0413 
  169800    318.69081   -26196.503    138.69369   -26335.197    1731.1473 
  170000    304.99297   -26186.207    132.73241   -26318.939    1780.1582 
  170200    290.14179   -26185.557     126.2692   -26311.827    4221.4979 
  170400    272.01726   -26196.265    118.38144   -26314.647    622.99272 
  170600    317.17323   -26186.567    138.03324   -26324.601   -3147.4979 
  170800    306.12991   -26190.476     133.2272   -26323.703   -6419.8376 
  171000    288.68713   -26201.189    125.63614   -26326.826   -5542.9935 
  171200    294.01991   -26205.102    127.95695   -26333.059   -971.50653 
  171400    316.43191   -26178.222    137.71062   -26315.933   -2978.3848 
  171600    308.39583   -26193.235    134.21333   -26327.448   -199.77248 
  171800    301.81029   -26192.213    131.34732    -26323.56   -449.89189 
  172000    292.23602   -26191.504    127.18061   -26318.685    1362.2941 
  172200    294.67665   -26195.254    128.24277   -26323.497   -466.52818 
  172400    315.30975   -26177.662    137.22226   -26314.884    -865.2254 
  172600    290.69941   -26193.617    126.51188   -26320.129     2186.709 
  172800    287.48609   -26196.906    125.11345    -26322.02    5529.8306 
  173000    351.51341   -26167.444    152.97803   -26320.423   -1907.7198 
  173200    304.77871   -26188.752    132.63917   -26321.391   -1222.9583 
  173400    316.10775   -26178.258    137.56955   -26315.828   -2045.8486 
  173600    301.59093   -26190.498    131.25185    -26321.75   -91.337126 
  173800     297.9488   -26204.552     129.6668   -26334.219   -1193.5449 
  174000    311.26678   -26175.882    135.46276   -26311.344    1006.0981 
  174200    297.52097   -26179.118    129.48061   -26308.599   -314.57544 
  174400      288.617   -26197.656    125.60562   -26323.262   -4239.4517 
  174600      281.959   -26190.433    122.70807   -26313.142   -5873.8358 
  174800     298.9576    -26176.11    130.10583   -26306.216   -2212.6239 
  175000    285.53397    -26195.33    124.26389   -26319.594    3144.7038 
  175200    290.64352   -26210.328    126.48756   -26336.815    336.78986 
  175400    290.88636   -26190.476    126.59324    -26317.07    3589.1657 
  175600    345.41702   -26171.998    150.32489   -26322.323    2161.2168 
  175800    309.01303    -26180.25    134.48193   -26314.732   -3152.4086 
  176000    267.73963   -26195.198    116.51982   -26311.718    2492.3045 
  176200    333.03913   -26174.222    144.93805    -26319.16      2200.05 
  176400    308.03404   -26204.496    134.05588   -26338.552   -934.64112 
  176600    307.04725   -26185.016    133.62643   -26318.643    2611.5397 
  176800    291.97427   -26187.349     127.0667   -26314.416     1536.683 
  177000    295.58709   -26197.234    128.63899   -26325.873   -3194.3645 
  177200    329.29737   -26174.953    143.30965   -26318.262    1630.4259 
  177400    271.42849   -26185.914    118.12521   -26304.039    1021.6087 
  177600    278.75883   -26197.174    121.31536    -26318.49     -566.005 
  177800    311.25284   -26183.899     135.4567   -26319.355   -4538.5053 
[...]
  950000    327.12881   -26192.839    142.36589   -26335.205   -1344.1547 
  950200    300.34407   -26200.369    130.70922   -26331.078    2908.6434 
  950400     271.9613   -26226.883    118.35708   -26345.241   -300.29861 
  950600    287.94551   -26204.679    125.31339   -26329.993    1295.6982 
  950800    306.11786   -26193.276    133.22196   -26326.498   -2044.9365 
  951000    264.51092    -26218.66     115.1147   -26333.775    4052.5351 
  951200     328.8147    -26183.25    143.09959   -26326.349   -3853.2898 
  951400    297.87303   -26194.641    129.63383   -26324.275   -1327.6456 
  951600    246.01604   -26217.386    107.06576   -26324.452    1766.7334 
  951800    330.46861   -26173.149    143.81937   -26316.968    754.66645 
  952000    324.42439   -26185.535    141.18893   -26326.724   -2595.4051 
  952200    293.86738   -26213.385    127.89057   -26341.276   -2076.2878 
  952400    309.40936   -26191.045    134.65442   -26325.699    1114.9325 
  952600    301.72033   -26196.821    131.30816   -26328.129    3216.9102 
  952800    299.75046   -26200.348    130.45088   -26330.799    4454.8809 
  953000    338.00458   -26171.742    147.09901   -26318.841      4281.65 
  953200    333.45536   -26193.821    145.11919   -26338.941   -6066.5124 
  953400    303.15656   -26204.804    131.93321   -26336.737   -6747.5158 
  953600    320.25711   -26186.024    139.37534   -26325.399    1777.9569 
  953800    260.51664   -26212.419    113.37639   -26325.796   -1123.3162 
  954000    286.08718   -26204.572    124.50465   -26329.076   -792.19231 
  954200    319.35833    -26186.17    138.98419   -26325.154   -2665.1712 
  954400    297.71326   -26208.522     129.5643   -26338.086     547.8484 
  954600    299.86666   -26207.107    130.50145   -26337.608   -8.0141972 
  954800    320.43858   -26188.472    139.45431   -26327.926   -2931.4588 
  955000    275.59832   -26206.509    119.93991   -26326.449    1651.6995 
  955200    295.36335   -26202.633    128.54162   -26331.175    1287.6532 
  955400     294.8074   -26199.194    128.29967   -26327.494    4473.8448 
  955600    332.21044    -26174.64    144.57741   -26319.217    -2080.698 
  955800    331.96754   -26185.254     144.4717   -26329.726   -5550.8665 
  956000    277.51995   -26207.103     120.7762   -26327.879   -3815.6278 
  956200    289.69874   -26206.594    126.07639   -26332.671   -3490.7631 
  956400    319.48759   -26179.389    139.04045    -26318.43    3113.6019 
  956600    321.66093    -26205.88    139.98628   -26345.866   -3745.5967 
  956800    281.72844   -26204.255    122.60773   -26326.863   -6197.4628 
  957000    317.31496   -26185.112    138.09492   -26323.207   -2298.7332 
  957200    279.31553   -26212.998    121.55764   -26334.556   -386.57702 
  957400    301.08503   -26203.824    131.03168   -26334.856    981.41977 
  957600    284.39325   -26200.634    123.76745   -26324.401     -267.016 
  957800    302.48543    -26203.39    131.64114   -26335.031    216.18772 
  958000    284.21237   -26200.683    123.68873   -26324.372    448.86305 
  958200    327.00232   -26176.664    142.31084   -26318.975    5905.8564 
  958400    298.28881   -26207.551    129.81477   -26337.366   -1142.9318 
  958600    292.70342   -26199.454    127.38402   -26326.838   -4974.7241 
  958800    336.14884   -26180.561    146.29139   -26326.853    2391.9176 
  959000    286.58612   -26201.426    124.72178   -26326.148    1452.9427 
  959200    312.11732   -26200.466    135.83292   -26336.299    267.32249 
  959400    340.36553   -26171.888    148.12649   -26320.014   -4578.3702 
  959600     285.9945   -26208.357    124.46431   -26332.821    3719.0457 
  959800     303.2525   -26190.222    131.97496   -26322.197    8304.8621 
  960000    288.91498   -26195.237     125.7353   -26320.972    263.64855 
  960200     289.0808   -26205.574    125.80746   -26331.381   -6186.5531 
  960400    296.57058   -26177.299      129.067   -26306.366   -4562.5304 
  960600    321.47597   -26176.757    139.90578   -26316.663    2550.6403 
  960800    286.75834   -26198.572    124.79673   -26323.369   -429.93522 
  961000     253.0403   -26214.226     110.1227   -26324.349   -5078.5014 
  961200    313.02565   -26187.565    136.22822   -26323.793   -8605.6609 
  961400    301.09115   -26202.523    131.03435   -26333.557   -535.83655 
  961600    289.94764   -26203.019    126.18471   -26329.204   -802.50021 
  961800    328.64688   -26176.006    143.02655   -26319.033   -2495.3997 
  962000    260.53745    -26205.02    113.38545   -26318.406   -2060.2097 
  962200    315.26938   -26194.862    137.20469   -26332.066    -842.9017 
  962400    304.68584    -26178.86    132.59875   -26311.459   -4537.7292 
  962600    279.32825   -26203.972    121.56317   -26325.535    2949.5907 
  962800    315.10629    -26195.45    137.13371   -26332.583   -843.89881 
  963000    326.78497   -26172.572    142.21625   -26314.788   -2908.4007 
  963200    282.37609   -26205.017    122.88959   -26327.907   -1800.5214 
  963400    329.58121   -26197.543    143.43317   -26340.976   -4159.7753 
  963600    316.71933   -26187.052     137.8357   -26324.888    4974.4929 
  963800    282.73604   -26211.425    123.04624   -26334.471    1009.8211 
  964000    310.60153   -26210.435    135.17325   -26345.608    -5336.506 
  964200    292.78469   -26190.957    127.41939   -26318.376    1870.4181 
  964400    314.83159   -26194.785    137.01416   -26331.799   0.78965724 
  964600    248.15611   -26221.745    107.99711   -26329.742    -6098.488 
  964800    328.44993   -26192.477    142.94084   -26335.418    940.30021 
  965000    315.88706   -26193.762     137.4735   -26331.235    6342.3056 
  965200     274.3467   -26212.197    119.39521   -26331.593   -2320.9818 
  965400    308.74197    -26182.99    134.36397   -26317.353   -963.52545 
  965600    310.11396   -26202.589    134.96106    -26337.55    5407.5805 
  965800    252.67419   -26230.849    109.96337   -26340.813    6106.4675 
  966000    315.55869   -26198.952     137.3306   -26336.283    1613.5057 
  966200    291.15666   -26193.843    126.71087   -26320.554    159.38215 
  966400    274.07973   -26209.199    119.27902   -26328.478   -1753.7632 
  966600    287.58542   -26198.034    125.15668    -26323.19   -5322.3499 
  966800    329.14008   -26186.227    143.24119   -26329.468   -3942.4205 
  967000    276.19639   -26212.275    120.20019   -26332.476    1082.6841 
  967200    287.00652   -26198.212    124.90474   -26323.117   -2873.5679 
  967400    311.65086   -26202.602    135.62992   -26338.232    115.49301 
  967600    285.75717       -26203    124.36103   -26327.361    4096.2854 
  967800    325.90687   -26180.582    141.83411   -26322.416   -1383.9411 
  968000     307.6978   -26211.505    133.90955   -26345.414    59.440592 
  968200    274.31028   -26205.243    119.37936   -26324.623    793.80047 
  968400    306.35864   -26185.788    133.32675   -26319.115    630.99554 
  968600     307.0791   -26186.202    133.64029   -26319.842   -3512.8174 
  968800    288.44055   -26213.105    125.52883   -26338.634    1037.4579 
  969000    332.94167   -26188.194    144.89564    -26333.09    228.01985 
  969200    286.92479   -26196.945    124.86917   -26321.814    -2321.902 
  969400    267.01784   -26214.984     116.2057    -26331.19   -7191.2794 
  969600    286.61724   -26214.188    124.73533   -26338.923    -4411.625 
  969800    286.55625   -26201.095    124.70878   -26325.803    786.25286 
  970000    339.95401   -26175.584     147.9474   -26323.531   -3374.6577 
  970200     288.7122   -26208.081    125.64705   -26333.728    6379.6629 
  970400    293.62547   -26208.155     127.7853    -26335.94   -3948.3819 
  970600    342.30972   -26179.553     148.9726   -26328.525    -5892.272 
  970800    315.15194   -26195.184    137.15358   -26332.338    2051.0784 
  971000    282.17517   -26213.384    122.80214   -26336.186   -450.27968 
  971200    308.71059   -26207.194    134.35031   -26341.544    2117.3404 
  971400     302.2787   -26188.153    131.55117   -26319.705     797.0696 
  971600    281.48444   -26218.471    122.50154   -26340.972    3406.8404 
  971800    303.75415   -26216.626    132.19328   -26348.819   -780.70965 
  972000    320.87121   -26191.591     139.6426   -26331.234   -1303.2544 
  972200    297.26294   -26192.869    129.36832   -26322.238    2047.6174 
  972400     266.0769   -26227.418    115.79621   -26343.215     2421.044 
  972600    281.76115   -26205.382    122.62197   -26328.004    652.76514 
  972800    313.43451   -26198.729    136.40615   -26335.135    934.74098 
  973000    281.24585   -26220.544    122.39771   -26342.942    1874.4552 
  973200    329.06215   -26190.989    143.20728   -26334.196   -2911.4276 
  973400    296.80649   -26197.616    129.16967   -26326.786   -3140.5174 
  973600    283.18677   -26223.077    123.24239   -26346.319    499.75635 
  973800    291.82133   -26203.566    127.00014   -26330.566   -679.77612 
  974000    295.18731   -26193.036    128.46501   -26321.501   -303.89769 
  974200    286.64016   -26214.343     124.7453   -26339.089   -54.214796 
  974400    272.82718   -26210.352    118.73392   -26329.086   -1274.3104 
  974600    325.18029   -26191.122     141.5179    -26332.64   -2687.6388 
  974800    273.42219   -26210.459    118.99286   -26329.452    1062.6082 
  975000    285.85922   -26226.328    124.40544   -26350.734   -6062.1035 
  975200    301.96766   -26196.987     131.4158   -26328.403   -4958.7178 
  975400    286.49052   -26209.252    124.68018   -26333.932    4075.7589 
  975600    304.54067    -26196.44    132.53557   -26328.976    3964.0704 
  975800    308.40167   -26188.938    134.21587   -26323.154   -1091.0859 
  976000    258.32911   -26222.228    112.42438   -26334.653    533.45154 
  976200    282.80278   -26206.927    123.07528   -26330.002    1348.6852 
  976400    298.24381   -26185.197    129.79519   -26314.992    4161.7206 
  976600    289.02087   -26185.965    125.78138   -26311.746    726.84229 
  976800    314.74253   -26192.126    136.97541   -26329.101    636.04523 
  977000    300.82332   -26220.688    130.91779   -26351.606    3564.6027 
  977200    321.05005   -26197.062    139.72043   -26336.783    3587.6224 
  977400    299.46419   -26190.996     130.3263   -26321.322   -1276.2072 
  977600    300.26215   -26205.119    130.67357   -26335.792    2547.6167 
  977800    271.43487   -26210.283    118.12799   -26328.411    2737.9654 
  978000    320.31039   -26197.059    139.39853   -26336.457    4603.7153 
  978200    273.85608   -26207.148    119.18169   -26326.329    14.045458 
  978400     313.2542   -26199.944    136.32769   -26336.271   -2500.4998 
  978600    347.09747   -26185.328    151.05622   -26336.384   -4423.8204 
  978800     275.8957   -26215.102    120.06933   -26335.171   -17.890875 
  979000    304.11304   -26193.188    132.34947   -26325.537    3917.2211 
  979200    290.24761    -26212.38    126.31526   -26338.696    1402.2086 
  979400     256.8501   -26238.752    111.78072   -26350.532    946.52098 
  979600    300.13047   -26207.214    130.61626    -26337.83   -1694.2375 
  979800    290.12753   -26190.449      126.263   -26316.712   -27.744367 
  980000    295.24084   -26200.517     128.4883   -26329.005   -2579.9063 
  980200    295.09721   -26200.274    128.42579     -26328.7    6609.5038 
  980400    301.94269   -26194.191    131.40493   -26325.596   -1288.2306 
  980600    280.90758   -26201.772    122.25049   -26324.022   -4920.9266 
  980800     291.1558   -26196.516     126.7105   -26323.226    597.03182 
  981000    330.71506   -26178.244    143.92662    -26322.17    2569.1228 
  981200    286.75555   -26207.212    124.79552   -26332.008   -1532.2762 
  981400      285.807   -26195.998    124.38271   -26320.381   -3284.0025 
  981600    327.05051   -26161.016    142.33182   -26303.348   -750.68012 
  981800    301.55791   -26175.611    131.23748   -26306.848    2564.4289 
  982000    282.82259   -26201.823     123.0839   -26324.906   -2888.1381 
  982200    315.36345   -26192.742    137.24563   -26329.988   -4057.0438 
  982400    320.76502   -26186.737    139.59638   -26326.334    2229.3876 
  982600    298.94912   -26196.306    130.10214   -26326.408    1738.7202 
  982800    282.37722   -26199.906    122.89008   -26322.796    2778.7239 
  983000    321.52147   -26173.991    139.92559   -26313.916    2038.1926 
  983200    314.50736   -26175.944    136.87306   -26312.817    2440.4571 
  983400     295.6412   -26205.631    128.66254   -26334.293   -3270.2155 
  983600    319.55258   -26186.169    139.06873   -26325.238    64.540811 
  983800    270.16267     -26204.3    117.57433   -26321.875   -2230.0181 
  984000    301.83777   -26199.698    131.35927   -26331.058    1248.8103 
  984200    286.13721   -26218.869    124.52642   -26343.395    -1378.203 
  984400    299.86713   -26205.324    130.50165   -26335.826   -2152.4903 
  984600     334.1656   -26191.042    145.42829   -26336.471    -2497.618 
  984800    287.56879   -26213.579    125.14944   -26338.728     9899.896 
  985000    315.65483   -26195.788    137.37244   -26333.161   -1544.0448 
  985200    297.03284   -26193.929    129.26818   -26323.197   -663.02495 
  985400    294.12693   -26207.027    128.00353   -26335.031    1309.6867 
  985600    305.10198   -26179.535    132.77985   -26312.314    2257.8056 
  985800     291.6326   -26203.524      126.918   -26330.442    1587.5151 
  986000    306.31184   -26207.459    133.30638   -26340.765    2369.7769 
  986200    338.67803   -26200.374    147.39209   -26347.766    2509.1404 
  986400    309.27385   -26198.606    134.59544   -26333.201    2987.9582 
  986600    276.00642   -26210.201    120.11752   -26330.318    3529.4276 
  986800    315.83927   -26196.233     137.4527   -26333.685    6695.2244 
  987000    289.78042   -26191.483    126.11194   -26317.595    5854.6023 
  987200    307.54345   -26198.139    133.84237   -26331.981   -1767.1151 
  987400    296.49582   -26196.107    129.03447   -26325.141   -291.01966 
  987600    313.11862   -26181.095    136.26868   -26317.364    1505.2582 
  987800    292.38252   -26196.969    127.24437   -26324.214   -1043.5718 
  988000    286.10489   -26210.605    124.51235   -26335.117   -1257.6511 
  988200    320.21941    -26195.94    139.35893   -26335.299    3894.2305 
  988400    287.46835    -26199.68    125.10573   -26324.786    4966.2167 
  988600    276.98726    -26204.56    120.54437   -26325.104    1962.5594 
  988800    289.78192   -26193.247    126.11259    -26319.36    1201.6955 
  989000    301.00606   -26185.453    130.99731    -26316.45    1397.5137 
  989200    292.82728   -26213.773    127.43792   -26341.211    1119.9732 
  989400    331.98294   -26186.242     144.4784   -26330.721   -5419.8089 
  989600     286.0422   -26190.193    124.48507   -26314.679    644.71727 
  989800    279.05182   -26207.865    121.44287   -26329.308   -972.75537 
  990000    243.05319   -26233.001    105.77633   -26338.777   -1140.3527 
  990200    311.10244   -26201.078    135.39124   -26336.469    472.10701 
  990400    322.31459   -26193.269    140.27075    -26333.54    2334.3244 
  990600    308.48981   -26206.812    134.25423   -26341.067   -883.96304 
  990800    289.15341   -26212.851    125.83906    -26338.69    741.05385 
  991000     292.1245   -26188.973    127.13208   -26316.105     4.875006 
  991200    310.62104    -26194.71    135.18174   -26329.891   -2254.1915 
  991400    265.34707   -26211.239    115.47858   -26326.718   -217.58254 
  991600    292.64222    -26202.24    127.35739   -26329.597    3944.9806 
  991800     303.4534   -26184.679    132.06239   -26316.741    109.27885 
  992000    275.46499   -26212.229    119.88189   -26332.111    -3760.144 
  992200    295.67225   -26202.908    128.67605   -26331.584    2241.1301 
  992400    319.33952   -26196.273      138.976   -26335.249    1674.4759 
  992600    281.14445   -26222.274    122.35358   -26344.628     679.9935 
  992800    280.32843    -26198.71    121.99845   -26320.708   -2970.9334 
  993000    287.90044   -26193.983    125.29377   -26319.276   -4011.8337 
  993200    284.14953   -26220.374    123.66138   -26344.035   -5773.5836 
  993400    318.11675   -26195.978    138.44386   -26334.422   -5116.1342 
  993600    316.78396    -26199.35    137.86383   -26337.214    611.39644 
  993800    286.70728   -26203.662    124.77451   -26328.436    720.31799 
  994000    293.80002   -26181.689    127.86126    -26309.55   -263.84977 
  994200    277.65188   -26215.296    120.83362    -26336.13   -2568.4448 
  994400    291.59791   -26203.278    126.90291   -26330.181   -848.63851 
  994600    307.06601   -26193.454     133.6346   -26327.089    2646.2859 
  994800    293.46322   -26205.668    127.71469   -26333.382    2654.6467 
  995000    327.25833   -26166.422    142.42226   -26308.844    5532.7532 
  995200    302.97434   -26191.517    131.85391   -26323.371    526.17001 
  995400    278.62315   -26207.568    121.25631   -26328.825   -1599.8015 
  995600    301.39834   -26176.345    131.16803   -26307.513    1272.6655 
  995800    286.50523   -26205.761    124.68658   -26330.448   -4386.5484 
  996000     294.8393   -26195.114    128.31355   -26323.428    714.79503 
  996200     296.9273   -26187.561    129.22224   -26316.783    7019.6542 
  996400    275.36199   -26214.068    119.83706   -26333.905    2366.7295 
  996600    303.32734   -26200.639    132.00753   -26332.647   -457.48083 
  996800    346.04193   -26171.995    150.59685   -26322.592   -3098.2182 
  997000    298.06462   -26204.078    129.71721   -26333.796   -1155.9664 
  997200    299.34309   -26201.372    130.27359   -26331.645    1752.3807 
  997400    293.37097     -26192.5    127.67454   -26320.174   -429.16266 
  997600     319.2758   -26206.977    138.94828   -26345.926   -940.28317 
  997800    285.35612   -26214.817    124.18649   -26339.003   -382.77829 
  998000    294.35942   -26186.415    128.10471   -26314.519   -905.57013 
  998200    281.04888   -26194.182    122.31198   -26316.494    7267.9943 
  998400    275.88228   -26212.266    120.06349   -26332.329    1733.4151 
  998600    275.77708   -26195.959    120.01771   -26315.977    4030.0435 
  998800    272.30972   -26214.409    118.50872   -26332.918   -2105.5457 
  999000    280.18838   -26205.822     121.9375   -26327.759    -1992.023 
  999200    313.26362   -26187.614    136.33179   -26323.946   -993.27548 
  999400    283.89198   -26210.579     123.5493   -26334.128   -1173.8683 
  999600    307.27019   -26189.048    133.72345   -26322.772   -2627.1845 
  999800    303.08444   -26182.774    131.90182   -26314.676   -1703.3687 
 1000000    275.39048   -26211.746    119.84946   -26331.595    2585.3343 
Loop time of 1919.47 on 8 procs for 1000000 steps with 147 atoms

Performance: 11.253 ns/day, 2.133 hours/ns, 520.976 timesteps/s
99.5% CPU use with 8 MPI tasks x no OpenMP threads

MPI task timing breakdown:
Section |  min time  |  avg time  |  max time  |%varavg| %total
---------------------------------------------------------------
Pair    | 725.01     | 871.39     | 1299.3     | 806.1 | 45.40
Neigh   | 0.8989     | 0.96487    | 1.1022     |   7.8 |  0.05
Comm    | 27.587     | 450.1      | 600.91     |1107.1 | 23.45
Output  | 0.11471    | 0.11953    | 0.14238    |   2.5 |  0.01
Modify  | 588.2      | 594.21     | 604.62     |  25.3 | 30.96
Other   |            | 2.693      |            |       |  0.14

Nlocal:    18.375 ave 68 max 1 min
Histogram: 6 0 0 0 0 0 0 0 0 2
Nghost:    347.375 ave 398 max 328 min
Histogram: 4 1 0 0 1 1 0 0 0 1
Neighs:    661.625 ave 2415 max 40 min
Histogram: 6 0 0 0 0 0 0 0 0 2

Total # of neighbors = 5293
Ave neighs/atom = 36.0068
Neighbor list builds = 3868
Dangerous builds = 0

unfix 1
unfix output
undump 1

Please see the log.cite file for references relevant to this simulation

Total wall time: 0:32:01
