ITEM: TIMESTEP
0
ITEM: NUMBER OF ATOMS
147
ITEM: BOX BOUNDS pp pp pp
0.0000000000000000e+00 2.1884000000000000e+01
0.0000000000000000e+00 2.1885999999999999e+01
0.0000000000000000e+00 2.1885000000000002e+01
ITEM: ATOMS id type x y z 
145 2 5.811 10.86 12.218 
146 2 6.701 9.688 11.995 
147 3 7.05 9.599 12.901 
16 1 1.605 12.547 12.547 
32 1 0.024 10.965 10.965 
64 1 4.318 12.218 12.218 
68 1 1.276 15.26 12.218 
78 1 1.276 12.218 15.26 
112 1 3.118 12.317 12.317 
116 1 1.375 14.061 12.317 
126 1 1.375 12.317 14.061 
144 1 0.722 11.664 11.663 
9 1 8.524 12.547 12.547 
25 1 10.105 10.965 10.965 
57 1 5.811 12.218 12.218 
65 1 8.853 15.26 12.218 
73 1 8.853 12.219 15.26 
105 1 7.01 12.317 12.317 
113 1 8.754 14.061 12.317 
121 1 8.754 12.317 14.061 
137 1 9.407 11.664 11.664 
11 1 1.605 19.466 12.547 
27 1 0.023 21.047 10.964 
59 1 4.318 19.795 12.218 
69 1 1.276 16.754 12.218 
79 1 1.276 19.795 15.26 
107 1 3.119 19.696 12.317 
117 1 1.375 17.953 12.317 
127 1 1.375 19.696 14.061 
139 1 0.721 20.349 11.663 
14 1 8.524 19.467 12.547 
30 1 10.106 21.049 10.966 
62 1 5.811 19.795 12.218 
72 1 8.853 16.753 12.218 
76 1 8.853 19.796 15.26 
110 1 7.01 19.696 12.317 
120 1 8.754 17.953 12.317 
124 1 8.754 19.697 14.061 
142 1 9.407 20.35 11.664 
13 1 1.605 12.547 19.466 
29 1 0.023 10.966 21.048 
61 1 4.318 12.218 19.795 
71 1 1.276 15.26 19.795 
75 1 1.276 12.218 16.754 
109 1 3.119 12.317 19.696 
119 1 1.375 14.061 19.696 
123 1 1.375 12.317 17.953 
141 1 0.721 11.664 20.35 
12 1 8.524 12.547 19.466 
28 1 10.106 10.965 21.047 
60 1 5.811 12.219 19.795 
70 1 8.853 15.26 19.796 
80 1 8.853 12.219 16.754 
108 1 7.011 12.317 19.696 
118 1 8.754 14.061 19.696 
128 1 8.754 12.318 17.953 
140 1 9.408 11.664 20.349 
10 1 1.604 19.466 19.466 
26 1 0.023 21.047 21.049 
58 1 4.317 19.796 19.795 
66 1 1.276 16.754 19.795 
74 1 1.276 19.795 16.753 
106 1 3.118 19.696 19.696 
114 1 1.375 17.953 19.696 
122 1 1.375 19.696 17.952 
138 1 0.721 20.349 20.35 
15 1 8.524 19.467 19.466 
31 1 10.106 21.048 21.049 
63 1 5.811 19.796 19.795 
67 1 8.853 16.754 19.795 
77 1 8.853 19.796 16.753 
111 1 7.01 19.697 19.696 
115 1 8.754 17.953 19.696 
125 1 8.754 19.697 17.952 
143 1 9.407 20.35 20.35 
8 1 12.547 1.604 1.605 
24 1 10.965 0.023 0.022 
40 1 15.26 1.275 1.276 
44 1 12.218 4.317 1.276 
54 1 12.218 1.275 4.318 
88 1 14.061 1.374 1.375 
92 1 12.317 3.118 1.375 
102 1 12.317 1.374 3.119 
136 1 11.664 0.721 0.721 
1 1 19.466 1.604 1.604 
17 1 21.048 0.023 0.022 
33 1 16.753 1.275 1.276 
41 1 19.795 4.317 1.276 
49 1 19.795 1.275 4.317 
81 1 17.952 1.374 1.375 
89 1 19.696 3.118 1.375 
97 1 19.696 1.374 3.118 
129 1 20.35 0.722 0.721 
3 1 12.546 8.524 1.604 
19 1 10.965 10.106 0.024 
35 1 15.26 8.852 1.276 
45 1 12.218 5.811 1.275 
55 1 12.218 8.852 4.317 
83 1 14.06 8.753 1.375 
93 1 12.317 7.01 1.374 
103 1 12.317 8.753 3.118 
131 1 11.663 9.407 0.722 
6 1 19.466 8.524 1.605 
22 1 21.048 10.105 0.023 
38 1 16.753 8.852 1.276 
48 1 19.795 5.811 1.276 
52 1 19.795 8.853 4.318 
86 1 17.952 8.754 1.375 
96 1 19.696 7.01 1.375 
100 1 19.696 8.754 3.118 
134 1 20.35 9.407 0.721 
5 1 12.547 1.604 8.524 
21 1 10.965 0.022 10.105 
37 1 15.26 1.275 8.853 
47 1 12.218 4.317 8.853 
51 1 12.218 1.276 5.811 
85 1 14.06 1.374 8.754 
95 1 12.317 3.118 8.754 
99 1 12.317 1.375 7.01 
133 1 11.663 0.72 9.407 
4 1 19.466 1.605 8.524 
20 1 21.048 0.024 10.107 
36 1 16.753 1.275 8.853 
46 1 19.795 4.317 8.853 
56 1 19.795 1.275 5.811 
84 1 17.952 1.374 8.754 
94 1 19.695 3.118 8.754 
104 1 19.696 1.374 7.01 
132 1 20.35 0.722 9.408 
2 1 12.547 8.524 8.524 
18 1 10.965 10.106 10.106 
34 1 15.26 8.853 8.853 
42 1 12.218 5.811 8.853 
50 1 12.218 8.852 5.811 
82 1 14.061 8.754 8.754 
90 1 12.317 7.01 8.754 
98 1 12.317 8.754 7.01 
130 1 11.664 9.407 9.407 
7 1 19.466 8.524 8.524 
23 1 21.047 10.106 10.106 
39 1 16.753 8.853 8.853 
43 1 19.795 5.811 8.853 
53 1 19.795 8.853 5.811 
87 1 17.952 8.754 8.754 
91 1 19.696 7.01 8.754 
101 1 19.696 8.754 7.01 
135 1 20.349 9.407 9.407 
ITEM: TIMESTEP
10
ITEM: NUMBER OF ATOMS
147
ITEM: BOX BOUNDS pp pp pp
0.0000000000000000e+00 2.1884000000000000e+01
0.0000000000000000e+00 2.1885999999999999e+01
0.0000000000000000e+00 2.1885000000000002e+01
ITEM: ATOMS id type x y z 
145 2 5.80492 10.9287 12.2179 
146 2 6.71035 9.67031 11.995 
147 3 7.04247 9.60714 12.8946 
16 1 1.58184 12.5506 12.5507 
32 1 0.0228471 10.9628 10.9624 
64 1 4.28769 12.245 12.2326 
68 1 1.27702 15.2621 12.2175 
78 1 1.27704 12.2175 15.2621 
112 1 3.09991 12.3284 12.3187 
116 1 1.37163 14.063 12.3176 
126 1 1.37177 12.3175 14.063 
144 1 0.71704 11.6633 11.6631 
9 1 8.48874 12.5539 12.546 
25 1 10.1089 10.9642 10.9643 
57 1 5.87278 12.0607 12.1734 
65 1 8.85634 15.265 12.2177 
73 1 8.85562 12.2181 15.2636 
105 1 7.061 12.3579 12.3487 
113 1 8.75227 14.0689 12.3136 
121 1 8.75162 12.3151 14.0658 
137 1 9.40327 11.6573 11.6579 
11 1 1.60477 19.4665 12.5467 
27 1 0.0229185 21.0476 10.9644 
59 1 4.3174 19.7946 12.2184 
69 1 1.27639 16.7549 12.2183 
79 1 1.27643 19.7946 15.2597 
107 1 3.11861 19.6958 12.3173 
117 1 1.37528 17.954 12.3173 
127 1 1.37524 19.6958 14.0608 
139 1 0.721184 20.3495 11.6629 
14 1 8.52384 19.4678 12.5473 
30 1 10.106 21.049 10.9655 
62 1 5.81102 19.7946 12.2183 
72 1 8.85333 16.7603 12.218 
76 1 8.85262 19.7956 15.2602 
110 1 7.00976 19.696 12.3172 
120 1 8.75356 17.9572 12.3174 
124 1 8.75378 19.6968 14.0614 
142 1 9.4078 20.3506 11.6635 
13 1 1.60493 12.5471 19.4667 
29 1 0.0230371 10.9657 21.0481 
61 1 4.31777 12.2186 19.7945 
71 1 1.27646 15.2601 19.7945 
75 1 1.27641 12.2183 16.7549 
109 1 3.11856 12.3174 19.6958 
119 1 1.37529 14.061 19.6958 
123 1 1.37528 12.3174 17.9541 
141 1 0.721216 11.6637 20.3501 
12 1 8.52407 12.5474 19.4673 
28 1 10.1062 10.965 21.0478 
60 1 5.81121 12.2189 19.7945 
70 1 8.85262 15.2606 19.7951 
80 1 8.85324 12.219 16.7581 
108 1 7.01032 12.3176 19.696 
118 1 8.75376 14.0616 19.6963 
128 1 8.75359 12.3182 17.9565 
140 1 9.4081 11.6632 20.3491 
10 1 1.60425 19.4663 19.4662 
26 1 0.0228966 21.0475 21.0488 
58 1 4.31739 19.7953 19.7945 
66 1 1.27644 16.7536 19.7946 
74 1 1.27647 19.7946 16.7534 
106 1 3.11826 19.6961 19.6957 
114 1 1.3751 17.9527 19.6958 
122 1 1.37514 19.6957 17.9524 
138 1 0.721031 20.3494 20.3498 
15 1 8.52403 19.467 19.4662 
31 1 10.1057 21.0482 21.0485 
63 1 5.81094 19.7955 19.7945 
67 1 8.8525 16.7542 19.7947 
77 1 8.85253 19.7955 16.7538 
111 1 7.01009 19.6967 19.6957 
115 1 8.75359 17.9533 19.6956 
125 1 8.75363 19.6967 17.9526 
143 1 9.40728 20.3499 20.3499 
8 1 12.5468 1.60407 1.60481 
24 1 10.9651 0.022796 0.0224147 
40 1 15.2597 1.27545 1.27649 
44 1 12.2185 4.31703 1.27633 
54 1 12.2185 1.27565 4.31757 
88 1 14.0607 1.37434 1.3753 
92 1 12.3174 3.11791 1.37536 
102 1 12.3173 1.37429 3.11856 
136 1 11.6638 0.720884 0.720984 
1 1 19.4662 1.6042 1.60426 
17 1 21.048 0.0228782 0.0224207 
33 1 16.7533 1.27543 1.27651 
41 1 19.7945 4.31728 1.27653 
49 1 19.7945 1.27546 4.31729 
81 1 17.9523 1.37439 1.37511 
89 1 19.6957 3.11815 1.37513 
97 1 19.6958 1.37434 3.11818 
129 1 20.3497 0.721254 0.721003 
3 1 12.5465 8.52369 1.60432 
19 1 10.9649 10.1059 0.0235555 
35 1 15.2596 8.85147 1.27652 
45 1 12.2185 5.81058 1.27559 
55 1 12.2185 8.8515 4.31713 
83 1 14.0603 8.75284 1.37511 
93 1 12.3171 7.00973 1.37424 
103 1 12.3171 8.75281 3.11802 
131 1 11.6633 9.40733 0.721701 
6 1 19.4661 8.52404 1.60476 
22 1 21.0478 10.1053 0.0230206 
38 1 16.7531 8.85178 1.27652 
48 1 19.7945 5.81083 1.2765 
52 1 19.7945 8.85256 4.31746 
86 1 17.9524 8.75336 1.37526 
96 1 19.6957 7.00996 1.37531 
100 1 19.6957 8.75367 3.11821 
134 1 20.3498 9.40701 0.721062 
5 1 12.5468 1.60415 8.52412 
21 1 10.9652 0.0221052 10.105 
37 1 15.2597 1.27546 8.85253 
47 1 12.2185 4.31698 8.85254 
51 1 12.2184 1.27634 5.81116 
85 1 14.0604 1.37427 8.75372 
95 1 12.3173 3.11788 8.75369 
99 1 12.3173 1.37511 7.01017 
133 1 11.6633 0.720698 9.407 
4 1 19.466 1.60445 8.52409 
20 1 21.0478 0.023632 10.1064 
36 1 16.7532 1.27546 8.85249 
46 1 19.7942 4.31723 8.85257 
56 1 19.7945 1.27548 5.81095 
84 1 17.9524 1.37448 8.75363 
94 1 19.6952 3.11813 8.75358 
104 1 19.6957 1.37448 7.01005 
132 1 20.3496 0.721727 9.40785 
2 1 12.5476 8.52316 8.52324 
18 1 10.9688 10.1026 10.1028 
34 1 15.26 8.85265 8.85264 
42 1 12.2184 5.81042 8.85258 
50 1 12.2184 8.85186 5.81058 
82 1 14.0612 8.75374 8.75375 
90 1 12.3172 7.0094 8.75376 
98 1 12.3172 8.75346 7.0096 
130 1 11.6665 9.40458 9.40443 
7 1 19.4659 8.5238 8.52408 
23 1 21.0467 10.1049 10.105 
39 1 16.7534 8.85259 8.85259 
43 1 19.7946 5.81072 8.85255 
53 1 19.7946 8.85257 5.81089 
87 1 17.9523 8.75366 8.75367 
91 1 19.6958 7.00979 8.7537 
101 1 19.6957 8.75369 7.01007 
135 1 20.3482 9.40635 9.40611 
ITEM: TIMESTEP
20
ITEM: NUMBER OF ATOMS
147
ITEM: BOX BOUNDS pp pp pp
0.0000000000000000e+00 2.1884000000000000e+01
0.0000000000000000e+00 2.1885999999999999e+01
0.0000000000000000e+00 2.1885000000000002e+01
ITEM: ATOMS id type x y z 
145 2 5.77143 10.85 12.204 
146 2 6.73585 9.60743 11.9815 
147 3 7.03973 9.61559 12.8962 
16 1 1.58874 12.5616 12.5529 
32 1 0.0212424 10.9634 10.9651 
64 1 4.3129 12.2755 12.2469 
68 1 1.27369 15.2631 12.2188 
78 1 1.27519 12.2182 15.2611 
112 1 3.12909 12.3992 12.35 
116 1 1.35831 14.0627 12.3195 
126 1 1.36114 12.3199 14.0614 
144 1 0.708753 11.6698 11.6661 
9 1 8.47587 12.5745 12.5487 
25 1 10.0951 10.9643 10.9698 
57 1 5.8884 11.9655 12.1287 
65 1 8.86686 15.2887 12.2084 
73 1 8.86016 12.2109 15.2722 
105 1 7.05513 12.3321 12.3211 
113 1 8.74566 14.0877 12.3122 
121 1 8.74116 12.3209 14.0769 
137 1 9.39182 11.6673 11.6557 
11 1 1.60268 19.4698 12.5472 
27 1 0.0218187 21.0497 10.9639 
59 1 4.31477 19.7936 12.2188 
69 1 1.27948 16.7564 12.2176 
79 1 1.27755 19.7934 15.2612 
107 1 3.11552 19.6963 12.3178 
117 1 1.37566 17.9557 12.3169 
127 1 1.37541 19.6964 14.0618 
139 1 0.72094 20.3531 11.6632 
14 1 8.5237 19.481 12.55 
30 1 10.1108 21.0505 10.9628 
62 1 5.80794 19.7941 12.2181 
72 1 8.86157 16.7776 12.2142 
76 1 8.85262 19.7949 15.2648 
110 1 7.00706 19.6999 12.3177 
120 1 8.75521 17.9797 12.3176 
124 1 8.75372 19.7004 14.0655 
142 1 9.40446 20.3594 11.6597 
13 1 1.60497 12.547 19.4707 
29 1 0.0239561 10.9625 21.0497 
61 1 4.31636 12.2193 19.7935 
71 1 1.27753 15.2612 19.7934 
75 1 1.27953 12.2178 16.7563 
109 1 3.11727 12.3182 19.6963 
119 1 1.37572 14.0619 19.6963 
123 1 1.37578 12.3171 17.9553 
141 1 0.717655 11.6654 20.3503 
12 1 8.52334 12.5494 19.4769 
28 1 10.109 10.9639 21.0497 
60 1 5.80951 12.2189 19.7938 
70 1 8.85209 15.2632 19.794 
80 1 8.85875 12.216 16.7682 
108 1 7.00858 12.3184 19.6983 
118 1 8.75353 14.0638 19.6987 
128 1 8.75547 12.3179 17.9659 
140 1 9.40621 11.6629 20.3564 
10 1 1.60533 19.468 19.4673 
26 1 0.0245243 21.0505 21.0485 
58 1 4.31727 19.7937 19.793 
66 1 1.27756 16.7547 19.7932 
74 1 1.27757 19.7931 16.7544 
106 1 3.11805 19.6956 19.6951 
114 1 1.37593 17.9538 19.6952 
122 1 1.37586 19.6953 17.9538 
138 1 0.718395 20.348 20.3503 
15 1 8.52509 19.4686 19.466 
31 1 10.1088 21.0499 21.0458 
63 1 5.81039 19.794 19.7931 
67 1 8.8515 16.7559 19.7935 
77 1 8.85172 19.7945 16.7569 
111 1 7.00957 19.696 19.6955 
115 1 8.75292 17.9551 19.6956 
125 1 8.75284 19.6959 17.9563 
143 1 9.40415 20.3513 20.3547 
8 1 12.5468 1.60421 1.6037 
24 1 10.9659 0.0226465 0.0229824 
40 1 15.2606 1.27701 1.27817 
44 1 12.22 4.31679 1.27769 
54 1 12.2199 1.27732 4.31647 
88 1 14.061 1.37511 1.37583 
92 1 12.3183 3.11738 1.37577 
102 1 12.3181 1.3754 3.11717 
136 1 11.6629 0.719921 0.723141 
1 1 19.464 1.60332 1.60325 
17 1 21.0448 0.0211688 0.0216891 
33 1 16.7533 1.27716 1.27809 
41 1 19.793 4.31684 1.27804 
49 1 19.793 1.27705 4.31697 
81 1 17.9528 1.37551 1.37599 
89 1 19.6949 3.11758 1.37593 
97 1 19.6949 1.37539 3.11782 
129 1 20.3533 0.722059 0.723561 
3 1 12.5458 8.52024 1.60328 
19 1 10.9646 10.1013 0.0232086 
35 1 15.26 8.85059 1.2777 
45 1 12.2197 5.80921 1.27713 
55 1 12.2191 8.85113 4.31564 
83 1 14.061 8.75214 1.37555 
93 1 12.3177 7.00859 1.37521 
103 1 12.3176 8.75215 3.11648 
131 1 11.6692 9.40953 0.721735 
6 1 19.465 8.52321 1.60243 
22 1 21.0452 10.1044 0.0204862 
38 1 16.7535 8.85058 1.27796 
48 1 19.7931 5.80991 1.2781 
52 1 19.7934 8.85146 4.31537 
86 1 17.9524 8.75221 1.37556 
96 1 19.695 7.00915 1.37554 
100 1 19.6948 8.75261 3.11654 
134 1 20.3522 9.40839 0.727323 
5 1 12.5502 1.60295 8.52431 
21 1 10.9706 0.0231235 10.1053 
37 1 15.2609 1.27669 8.85124 
47 1 12.2191 4.31578 8.85188 
51 1 12.2196 1.27728 5.80987 
85 1 14.0618 1.37497 8.75297 
95 1 12.3178 3.11661 8.75324 
99 1 12.3179 1.37522 7.00912 
133 1 11.6618 0.723357 9.40172 
4 1 19.4645 1.60287 8.52419 
20 1 21.0449 0.0217121 10.1056 
36 1 16.7532 1.27694 8.85108 
46 1 19.7931 4.31576 8.85127 
56 1 19.793 1.27708 5.81055 
84 1 17.9523 1.37524 8.75281 
94 1 19.6948 3.11647 8.75282 
104 1 19.6948 1.37527 7.00968 
132 1 20.3521 0.723224 9.40495 
2 1 12.5515 8.51776 8.51986 
18 1 10.969 10.1033 10.1084 
34 1 15.2601 8.85264 8.85251 
42 1 12.2188 5.80886 8.85231 
50 1 12.2187 8.85171 5.80913 
82 1 14.061 8.75143 8.75165 
90 1 12.3191 7.00777 8.75169 
98 1 12.3191 8.75102 7.00799 
130 1 11.6639 9.41037 9.40547 
7 1 19.4649 8.51965 8.52212 
23 1 21.0476 10.0998 10.1033 
39 1 16.7531 8.85255 8.85246 
43 1 19.7936 5.8085 8.85186 
53 1 19.7937 8.85191 5.80916 
87 1 17.9525 8.75293 8.75322 
91 1 19.6953 7.00779 8.75299 
101 1 19.6952 8.75267 7.00799 
135 1 20.3492 9.40729 9.4008 
ITEM: TIMESTEP
30
ITEM: NUMBER OF ATOMS
147
ITEM: BOX BOUNDS pp pp pp
0.0000000000000000e+00 2.1884000000000000e+01
0.0000000000000000e+00 2.1885999999999999e+01
0.0000000000000000e+00 2.1885000000000002e+01
ITEM: ATOMS id type x y z 
145 2 5.75787 10.8249 12.1941 
146 2 6.75073 9.57474 11.9774 
147 3 7.03821 9.61835 12.895 
16 1 1.5996 12.5663 12.5548 
32 1 0.0238205 10.9683 10.9689 
64 1 4.32247 12.2831 12.2485 
68 1 1.26837 15.2637 12.2199 
78 1 1.27251 12.2196 15.2589 
112 1 3.13933 12.4095 12.36 
116 1 1.36104 14.0637 12.3203 
126 1 1.36625 12.3235 14.0601 
144 1 0.717576 11.6716 11.6666 
9 1 8.47068 12.5725 12.5482 
25 1 10.0932 10.9692 10.969 
57 1 5.8797 11.9429 12.1203 
65 1 8.86371 15.2917 12.2091 
73 1 8.85499 12.2152 15.2708 
105 1 7.05154 12.3071 12.3154 
113 1 8.74193 14.0928 12.3121 
121 1 8.73762 12.3253 14.0723 
137 1 9.38834 11.6682 11.6605 
11 1 1.60149 19.4676 12.547 
27 1 0.0219664 21.0493 10.9643 
59 1 4.31295 19.7936 12.2185 
69 1 1.27808 16.7549 12.2183 
79 1 1.27775 19.7934 15.2611 
107 1 3.11441 19.6965 12.3176 
117 1 1.37684 17.9549 12.3169 
127 1 1.37485 19.6964 14.062 
139 1 0.720286 20.3528 11.6641 
14 1 8.52126 19.4862 12.5499 
30 1 10.1084 21.0533 10.9612 
62 1 5.80621 19.7949 12.218 
72 1 8.86529 16.782 12.2119 
76 1 8.85305 19.7957 15.265 
110 1 7.00468 19.7037 12.3179 
120 1 8.75897 17.9762 12.3156 
124 1 8.75305 19.7045 14.0664 
142 1 9.40873 20.3619 11.6633 
13 1 1.60371 12.5471 19.4674 
29 1 0.0233387 10.9649 21.0486 
61 1 4.31577 12.2195 19.7933 
71 1 1.27817 15.2606 19.7933 
75 1 1.2793 12.2185 16.753 
109 1 3.11636 12.3183 19.6961 
119 1 1.37542 14.0614 19.6958 
123 1 1.37708 12.3174 17.9525 
141 1 0.719162 11.6638 20.35 
12 1 8.52284 12.5499 19.4768 
28 1 10.1065 10.9652 21.0526 
60 1 5.8089 12.2195 19.7939 
70 1 8.85185 15.2621 19.7944 
80 1 8.85957 12.2144 16.7656 
108 1 7.00842 12.3188 19.6997 
118 1 8.75286 14.0625 19.7001 
128 1 8.75758 12.3166 17.963 
140 1 9.40681 11.6622 20.3535 
10 1 1.60476 19.4674 19.4677 
26 1 0.023115 21.049 21.0489 
58 1 4.31674 19.7936 19.7928 
66 1 1.27801 16.7538 19.7928 
74 1 1.27798 19.7931 16.7547 
106 1 3.11729 19.6955 19.6952 
114 1 1.37572 17.953 19.6952 
122 1 1.37563 19.6952 17.9537 
138 1 0.720132 20.3497 20.3495 
15 1 8.52369 19.4691 19.4691 
31 1 10.1068 21.0505 21.0486 
63 1 5.8093 19.7939 19.7929 
67 1 8.85201 16.7552 19.7932 
77 1 8.85247 19.7941 16.7582 
111 1 7.00883 19.6963 19.6962 
115 1 8.75279 17.9546 19.6966 
125 1 8.75302 19.6967 17.9567 
143 1 9.40677 20.351 20.3521 
8 1 12.5471 1.60408 1.60388 
24 1 10.9659 0.0227943 0.0229216 
40 1 15.2605 1.27728 1.27818 
44 1 12.2201 4.31678 1.27757 
54 1 12.2198 1.27744 4.31638 
88 1 14.0614 1.37502 1.37595 
92 1 12.3182 3.11751 1.37564 
102 1 12.3182 1.37533 3.11745 
136 1 11.6647 0.720217 0.722634 
1 1 19.4658 1.60348 1.60393 
17 1 21.0472 0.0219327 0.0225014 
33 1 16.7535 1.2774 1.27818 
41 1 19.7927 4.31682 1.27816 
49 1 19.7927 1.27733 4.31695 
81 1 17.9526 1.37537 1.3761 
89 1 19.6949 3.11794 1.37618 
97 1 19.6948 1.37551 3.11781 
129 1 20.3504 0.721253 0.722045 
3 1 12.5475 8.52164 1.6046 
19 1 10.9677 10.1034 0.0222124 
35 1 15.2606 8.85028 1.27788 
45 1 12.2196 5.80955 1.27742 
55 1 12.219 8.85076 4.31791 
83 1 14.0613 8.7517 1.37581 
93 1 12.3184 7.00882 1.37523 
103 1 12.318 8.75226 3.11899 
131 1 11.6658 9.40592 0.722232 
6 1 19.4664 8.52324 1.60438 
22 1 21.0476 10.1057 0.0243397 
38 1 16.7533 8.85036 1.27778 
48 1 19.7928 5.81047 1.27804 
52 1 19.7931 8.85121 4.31735 
86 1 17.9526 8.75224 1.37585 
96 1 19.6949 7.00946 1.37599 
100 1 19.6948 8.75257 3.11805 
134 1 20.3499 9.40656 0.720743 
5 1 12.5491 1.60521 8.52209 
21 1 10.9701 0.0240192 10.1017 
37 1 15.2613 1.27667 8.85153 
47 1 12.2193 4.31868 8.85214 
51 1 12.2198 1.27713 5.8094 
85 1 14.0619 1.37497 8.75229 
95 1 12.3178 3.1199 8.75278 
99 1 12.3184 1.37554 7.00843 
133 1 11.6659 0.722746 9.40352 
4 1 19.4659 1.60318 8.52313 
20 1 21.0467 0.0226586 10.1049 
36 1 16.7538 1.27691 8.85125 
46 1 19.7929 4.3174 8.85139 
56 1 19.7927 1.27724 5.81015 
84 1 17.9531 1.37505 8.75251 
94 1 19.6951 3.1182 8.75263 
104 1 19.6948 1.37533 7.00934 
132 1 20.3498 0.721675 9.40594 
2 1 12.5472 8.52383 8.52375 
18 1 10.9633 10.1075 10.1107 
34 1 15.2588 8.85073 8.85093 
42 1 12.2203 5.81238 8.85072 
50 1 12.2204 8.84984 5.81175 
82 1 14.0598 8.75123 8.75097 
90 1 12.3197 7.01144 8.75087 
98 1 12.3198 8.7506 7.01095 
130 1 11.6594 9.41091 9.41271 
7 1 19.4666 8.52218 8.52162 
23 1 21.0515 10.1046 10.1044 
39 1 16.7531 8.85153 8.85185 
43 1 19.7928 5.81069 8.8512 
53 1 19.793 8.85086 5.81034 
87 1 17.9517 8.75238 8.75203 
91 1 19.6943 7.00981 8.75143 
101 1 19.6941 8.75153 7.00951 
135 1 20.3506 9.40702 9.40802 
ITEM: TIMESTEP
40
ITEM: NUMBER OF ATOMS
147
ITEM: BOX BOUNDS pp pp pp
0.0000000000000000e+00 2.1884000000000000e+01
0.0000000000000000e+00 2.1885999999999999e+01
0.0000000000000000e+00 2.1885000000000002e+01
ITEM: ATOMS id type x y z 
145 2 5.72741 10.7767 12.1649 
146 2 6.78776 9.49655 11.97 
147 3 7.03615 9.62086 12.8916 
16 1 1.6166 12.5708 12.5567 
32 1 0.0375842 10.9728 10.9723 
64 1 4.3371 12.2803 12.2511 
68 1 1.26253 15.2657 12.2201 
78 1 1.27365 12.224 15.2561 
112 1 3.15605 12.4239 12.3693 
116 1 1.36692 14.0669 12.3218 
126 1 1.37768 12.33 14.0582 
144 1 0.735297 11.6766 11.6644 
9 1 8.44854 12.5706 12.5446 
25 1 10.0894 10.9747 10.9745 
57 1 5.88414 11.8943 12.1073 
65 1 8.8512 15.2922 12.2113 
73 1 8.84618 12.2274 15.2666 
105 1 7.04576 12.2687 12.3077 
113 1 8.7208 14.0938 12.3129 
121 1 8.72566 12.3328 14.069 
137 1 9.38019 11.6736 11.6623 
11 1 1.59962 19.467 12.5471 
27 1 0.0210534 21.0497 10.964 
59 1 4.31345 19.7944 12.2174 
69 1 1.27067 16.7559 12.2184 
79 1 1.27693 19.7936 15.2616 
107 1 3.11483 19.6961 12.3167 
117 1 1.37322 17.9555 12.3187 
127 1 1.37386 19.696 14.0623 
139 1 0.718783 20.3517 11.663 
14 1 8.51944 19.4909 12.5493 
30 1 10.1076 21.0594 10.9618 
62 1 5.80649 19.7998 12.2189 
72 1 8.86883 16.7838 12.2092 
76 1 8.8518 19.8009 15.2655 
110 1 7.00575 19.7083 12.319 
120 1 8.76562 17.9798 12.3126 
124 1 8.75272 19.7094 14.0664 
142 1 9.40869 20.3667 11.6645 
13 1 1.60446 12.5438 19.4611 
29 1 0.0238916 10.9651 21.0469 
61 1 4.31527 12.221 19.7934 
71 1 1.27847 15.2591 19.7926 
75 1 1.27603 12.2201 16.7487 
109 1 3.11643 12.3179 19.6927 
119 1 1.37547 14.0595 19.693 
123 1 1.37638 12.3182 17.9481 
141 1 0.720283 11.6665 20.3511 
12 1 8.52596 12.5482 19.4708 
28 1 10.1094 10.9664 21.0498 
60 1 5.80968 12.2221 19.7963 
70 1 8.8504 15.2588 19.7965 
80 1 8.85757 12.2171 16.7606 
108 1 7.00899 12.3186 19.6977 
118 1 8.75213 14.0597 19.6982 
128 1 8.75815 12.313 17.9596 
140 1 9.40471 11.6625 20.3556 
10 1 1.60312 19.4673 19.4663 
26 1 0.0238211 21.0509 21.0472 
58 1 4.31663 19.7936 19.7929 
66 1 1.27879 16.7507 19.7933 
74 1 1.2782 19.7937 16.7549 
106 1 3.11704 19.6955 19.6953 
114 1 1.37515 17.9505 19.6955 
122 1 1.3753 19.6948 17.9542 
138 1 0.720889 20.3471 20.3527 
15 1 8.52352 19.467 19.4701 
31 1 10.1072 21.0491 21.0487 
63 1 5.80897 19.7944 19.7936 
67 1 8.85117 16.7533 19.7943 
77 1 8.85291 19.7951 16.76 
111 1 7.00864 19.6964 19.6977 
115 1 8.75332 17.9523 19.6971 
125 1 8.75424 19.6952 17.9584 
143 1 9.40543 20.3513 20.3529 
8 1 12.5457 1.60679 1.60434 
24 1 10.9636 0.0242094 0.0248568 
40 1 15.2609 1.27712 1.27803 
44 1 12.2199 4.31796 1.27739 
54 1 12.2195 1.27672 4.31718 
88 1 14.0618 1.37527 1.37552 
92 1 12.3187 3.11885 1.37534 
102 1 12.3183 1.37507 3.11796 
136 1 11.6682 0.720072 0.71986 
1 1 19.4665 1.60419 1.6046 
17 1 21.0464 0.0210186 0.0236087 
33 1 16.7545 1.27723 1.27833 
41 1 19.7924 4.31787 1.2784 
49 1 19.7925 1.27741 4.31735 
81 1 17.9535 1.37573 1.3758 
89 1 19.695 3.11886 1.37576 
97 1 19.6953 1.37545 3.11808 
129 1 20.3493 0.722456 0.720308 
3 1 12.5469 8.52345 1.60841 
19 1 10.9642 10.1034 0.0261623 
35 1 15.2608 8.84892 1.27821 
45 1 12.2211 5.81187 1.27766 
55 1 12.2226 8.84747 4.32336 
83 1 14.0612 8.7515 1.37791 
93 1 12.3189 7.0109 1.37804 
103 1 12.3185 8.75145 3.12383 
131 1 11.6657 9.40597 0.722707 
6 1 19.4687 8.52439 1.60851 
22 1 21.0484 10.1051 0.0232341 
38 1 16.7528 8.84968 1.27848 
48 1 19.7921 5.812 1.27887 
52 1 19.7912 8.84924 4.3214 
86 1 17.9525 8.75182 1.37611 
96 1 19.6943 7.01116 1.37664 
100 1 19.695 8.75224 3.12179 
134 1 20.3488 9.40773 0.720078 
5 1 12.5509 1.61086 8.52141 
21 1 10.9715 0.0253091 10.099 
37 1 15.2612 1.27661 8.85036 
47 1 12.2217 4.3257 8.84879 
51 1 12.2202 1.27716 5.80956 
85 1 14.0622 1.37871 8.75144 
95 1 12.3194 3.12625 8.75191 
99 1 12.3194 1.37849 7.00862 
133 1 11.6683 0.726317 9.40302 
4 1 19.4663 1.60848 8.52481 
20 1 21.0457 0.0254694 10.1054 
36 1 16.7549 1.27608 8.85081 
46 1 19.7916 4.32313 8.84962 
56 1 19.7922 1.27723 5.81057 
84 1 17.954 1.37645 8.75265 
94 1 19.6951 3.12343 8.75255 
104 1 19.6953 1.37654 7.00989 
132 1 20.3491 0.721331 9.40304 
2 1 12.545 8.53336 8.53246 
18 1 10.9571 10.1125 10.1143 
34 1 15.2585 8.84646 8.84599 
42 1 12.2232 5.819 8.84737 
50 1 12.2235 8.84659 5.81768 
82 1 14.0586 8.75342 8.75413 
90 1 12.318 7.01885 8.75412 
98 1 12.3175 8.75339 7.01735 
130 1 11.6539 9.41574 9.41644 
7 1 19.4677 8.53163 8.52813 
23 1 21.0545 10.1141 10.1117 
39 1 16.7527 8.8462 8.84554 
43 1 19.7904 5.81581 8.84697 
53 1 19.7902 8.84727 5.81517 
87 1 17.9526 8.75163 8.75248 
91 1 19.6925 7.01566 8.75237 
101 1 19.6932 8.7521 7.01492 
135 1 20.3567 9.4105 9.41892 
ITEM: TIMESTEP
44
ITEM: NUMBER OF ATOMS
147
ITEM: BOX BOUNDS pp pp pp
0.0000000000000000e+00 2.1884000000000000e+01
0.0000000000000000e+00 2.1885999999999999e+01
0.0000000000000000e+00 2.1885000000000002e+01
ITEM: ATOMS id type x y z 
145 2 5.72684 10.7747 12.1627 
146 2 6.78984 9.49223 11.9696 
147 3 7.03633 9.62055 12.8915 
16 1 1.6162 12.5732 12.5554 
32 1 0.0374639 10.9746 10.9707 
64 1 4.33876 12.2789 12.251 
68 1 1.26269 15.2655 12.2199 
78 1 1.27408 12.2241 15.2564 
112 1 3.15916 12.424 12.3691 
116 1 1.36685 14.0669 12.3218 
126 1 1.37762 12.3299 14.0583 
144 1 0.736084 11.674 11.666 
9 1 8.45097 12.5726 12.5444 
25 1 10.0896 10.9758 10.9748 
57 1 5.8795 11.8908 12.1067 
65 1 8.85044 15.2914 12.211 
73 1 8.84594 12.2275 15.2649 
105 1 7.04643 12.2677 12.3071 
113 1 8.71916 14.0919 12.3132 
121 1 8.72409 12.3334 14.0697 
137 1 9.37855 11.6732 11.662 
11 1 1.6009 19.4679 12.5474 
27 1 0.0209484 21.0507 10.964 
59 1 4.31323 19.7946 12.2177 
69 1 1.2703 16.7569 12.2186 
79 1 1.27714 19.7937 15.2616 
107 1 3.11413 19.6958 12.3167 
117 1 1.37272 17.9562 12.3185 
127 1 1.37371 19.6959 14.0622 
139 1 0.717829 20.3513 11.6626 
14 1 8.5219 19.4897 12.5503 
30 1 10.109 21.0585 10.962 
62 1 5.80641 19.7997 12.2189 
72 1 8.86858 16.7854 12.2097 
76 1 8.85188 19.8007 15.2658 
110 1 7.00634 19.7086 12.3191 
120 1 8.76507 17.9809 12.3127 
124 1 8.75213 19.7097 14.0659 
142 1 9.40632 20.3682 11.6643 
13 1 1.60402 12.5459 19.4626 
29 1 0.0237411 10.9655 21.0486 
61 1 4.31625 12.2212 19.7934 
71 1 1.27848 15.2574 19.7925 
75 1 1.27594 12.2203 16.7488 
109 1 3.11733 12.3177 19.6927 
119 1 1.37588 14.0587 19.6927 
123 1 1.37609 12.3178 17.9483 
141 1 0.719735 11.6651 20.349 
12 1 8.52349 12.5465 19.4715 
28 1 10.1079 10.9654 21.0512 
60 1 5.80963 12.2218 19.7957 
70 1 8.85033 15.2601 19.7961 
80 1 8.85712 12.2172 16.7611 
108 1 7.00917 12.3192 19.698 
118 1 8.75239 14.0604 19.6985 
128 1 8.75863 12.3136 17.9589 
140 1 9.40687 11.6628 20.3548 
10 1 1.60346 19.4651 19.4679 
26 1 0.0238481 21.0496 21.0489 
58 1 4.31594 19.7936 19.7929 
66 1 1.27868 16.7526 19.7932 
74 1 1.278 19.7934 16.7546 
106 1 3.11684 19.6954 19.6952 
114 1 1.37563 17.9515 19.6953 
122 1 1.37541 19.6951 17.954 
138 1 0.719799 20.3487 20.3508 
15 1 8.52275 19.4667 19.471 
31 1 10.1061 21.0496 21.0496 
63 1 5.80979 19.7943 19.7937 
67 1 8.85107 16.7526 19.7945 
77 1 8.85286 19.7951 16.7587 
111 1 7.00909 19.6962 19.6974 
115 1 8.75313 17.952 19.6972 
125 1 8.75412 19.6954 17.9581 
143 1 9.40689 20.3512 20.3524 
8 1 12.548 1.60535 1.60399 
24 1 10.9652 0.0233579 0.0240471 
40 1 15.2604 1.27714 1.27815 
44 1 12.2203 4.31883 1.27732 
54 1 12.2198 1.27653 4.31655 
88 1 14.0612 1.37576 1.37579 
92 1 12.3183 3.11935 1.37541 
102 1 12.3181 1.37548 3.11746 
136 1 11.666 0.720976 0.720341 
1 1 19.4667 1.60499 1.604 
17 1 21.0469 0.0219923 0.0224179 
33 1 16.754 1.27733 1.27823 
41 1 19.7924 4.31862 1.27845 
49 1 19.7925 1.2774 4.31753 
81 1 17.9534 1.37562 1.37593 
89 1 19.695 3.11912 1.37587 
97 1 19.6952 1.37545 3.11821 
129 1 20.3498 0.721014 0.721168 
3 1 12.5475 8.52351 1.60831 
19 1 10.9656 10.1034 0.0249055 
35 1 15.2598 8.84898 1.27852 
45 1 12.221 5.81128 1.27801 
55 1 12.2228 8.84727 4.32348 
83 1 14.0608 8.75128 1.37802 
93 1 12.319 7.01067 1.37792 
103 1 12.3189 8.7512 3.12371 
131 1 11.6645 9.40682 0.724485 
6 1 19.4668 8.52429 1.60669 
22 1 21.048 10.1045 0.0219919 
38 1 16.7546 8.84929 1.27831 
48 1 19.7918 5.81175 1.27874 
52 1 19.7911 8.84888 4.32179 
86 1 17.9535 8.75178 1.37695 
96 1 19.6946 7.01118 1.37719 
100 1 19.6949 8.75222 3.12224 
134 1 20.3493 9.40841 0.722426 
5 1 12.55 1.61217 8.52186 
21 1 10.9708 0.0261956 10.0998 
37 1 15.262 1.27696 8.85034 
47 1 12.2219 4.32524 8.8486 
51 1 12.2201 1.27743 5.81 
85 1 14.063 1.37853 8.75134 
95 1 12.3198 3.126 8.75146 
99 1 12.3197 1.37856 7.00889 
133 1 11.6688 0.725482 9.4022 
4 1 19.4666 1.60806 8.52336 
20 1 21.0458 0.0239965 10.1046 
36 1 16.7545 1.27625 8.85066 
46 1 19.7916 4.32261 8.84919 
56 1 19.7923 1.27742 5.81115 
84 1 17.9536 1.3765 8.75272 
94 1 19.6948 3.12321 8.75249 
104 1 19.6949 1.37688 7.01032 
132 1 20.3498 0.723108 9.40463 
2 1 12.5434 8.53236 8.53176 
18 1 10.9557 10.1123 10.1143 
34 1 15.2593 8.84645 8.84621 
42 1 12.2228 5.81935 8.84766 
50 1 12.2231 8.84666 5.81732 
82 1 14.0589 8.7538 8.75402 
90 1 12.3183 7.01911 8.75419 
98 1 12.318 8.75375 7.01726 
130 1 11.6548 9.41787 9.41866 
7 1 19.4677 8.53003 8.52983 
23 1 21.0549 10.1125 10.1133 
39 1 16.7527 8.84587 8.84571 
43 1 19.79 5.81711 8.84733 
53 1 19.79 8.84727 5.81515 
87 1 17.9531 8.75209 8.75206 
91 1 19.6927 7.01655 8.75198 
101 1 19.6933 8.7525 7.01499 
135 1 20.3573 9.41276 9.4171 
ITEM: TIMESTEP
50
ITEM: NUMBER OF ATOMS
147
ITEM: BOX BOUNDS pp pp pp
0.0000000000000000e+00 2.1884000000000000e+01
0.0000000000000000e+00 2.1885999999999999e+01
0.0000000000000000e+00 2.1885000000000002e+01
ITEM: ATOMS id type x y z 
145 2 5.7255 10.7702 12.1592 
146 2 6.79323 9.48537 11.9694 
147 3 7.03661 9.61998 12.8913 
16 1 1.61848 12.5734 12.5557 
32 1 0.0386071 10.9746 10.9717 
64 1 4.33903 12.2772 12.251 
68 1 1.26286 15.2663 12.2201 
78 1 1.27475 12.2244 15.2559 
112 1 3.16023 12.4244 12.369 
116 1 1.36693 14.0674 12.3215 
126 1 1.37792 12.3304 14.0577 
144 1 0.737254 11.6754 11.6653 
9 1 8.4518 12.5726 12.545 
25 1 10.0892 10.977 10.9746 
57 1 5.87598 11.886 12.1053 
65 1 8.84873 15.2933 12.211 
73 1 8.84509 12.2276 15.2657 
105 1 7.0449 12.2659 12.306 
113 1 8.71806 14.0955 12.3127 
121 1 8.72297 12.3343 14.0698 
137 1 9.37802 11.6714 11.6613 
11 1 1.60063 19.4683 12.5474 
27 1 0.0205399 21.0502 10.9642 
59 1 4.31364 19.7948 12.2178 
69 1 1.26974 16.7571 12.2188 
79 1 1.27714 19.7936 15.2615 
107 1 3.11422 19.6959 12.3168 
117 1 1.37206 17.9564 12.3183 
127 1 1.37384 19.696 14.062 
139 1 0.718387 20.3519 11.6628 
14 1 8.52194 19.4906 12.5505 
30 1 10.1085 21.0597 10.9624 
62 1 5.80667 19.7997 12.219 
72 1 8.86785 16.7832 12.2098 
76 1 8.8517 19.8008 15.2657 
110 1 7.00657 19.7087 12.3193 
120 1 8.76503 17.9816 12.313 
124 1 8.75207 19.7098 14.0657 
142 1 9.40703 20.3669 11.6635 
13 1 1.60344 12.5457 19.4627 
29 1 0.0228303 10.9659 21.0483 
61 1 4.31636 12.2211 19.7931 
71 1 1.27861 15.2588 19.7922 
75 1 1.27606 12.2204 16.7493 
109 1 3.11723 12.3181 19.6929 
119 1 1.37598 14.0594 19.6928 
123 1 1.37562 12.3178 17.9485 
141 1 0.720929 11.6637 20.3489 
12 1 8.52352 12.5459 19.472 
28 1 10.1067 10.9647 21.0517 
60 1 5.80972 12.2218 19.7952 
70 1 8.85042 15.2594 19.7957 
80 1 8.85694 12.2177 16.761 
108 1 7.00915 12.3194 19.6982 
118 1 8.75211 14.0601 19.6986 
128 1 8.75847 12.314 17.9585 
140 1 9.40817 11.6635 20.3541 
10 1 1.60274 19.4652 19.4675 
26 1 0.0226888 21.0485 21.0484 
58 1 4.31641 19.7937 19.7928 
66 1 1.27865 16.7511 19.793 
74 1 1.27795 19.7934 16.7548 
106 1 3.11706 19.6951 19.6953 
114 1 1.37574 17.9507 19.6955 
122 1 1.37548 19.6949 17.9542 
138 1 0.721649 20.3498 20.3514 
15 1 8.52315 19.4668 19.4706 
31 1 10.1053 21.0502 21.0493 
63 1 5.80946 19.7941 19.7937 
67 1 8.85099 16.7533 19.7945 
77 1 8.85281 19.7951 16.7587 
111 1 7.00886 19.6961 19.6974 
115 1 8.75265 17.9525 19.6973 
125 1 8.75377 19.6955 17.9582 
143 1 9.40762 20.3496 20.3532 
8 1 12.5481 1.60506 1.60374 
24 1 10.9663 0.0230885 0.0235378 
40 1 15.2609 1.2773 1.27822 