ITEM: TIMESTEP
0
ITEM: NUMBER OF ATOMS
58
ITEM: BOX BOUNDS pp pp pp
0.0000000000000000e+00 3.2808000000000000e+01
0.0000000000000000e+00 1.7780000000000001e+01
0.0000000000000000e+00 2.4729999999999999e+00
ITEM: ATOMS id type x y z 
13 1 7.043 0.849 2.464 
29 1 7.397 1.432 1.228 
37 1 8.035 2.733 1.228 
1 1 6.173 17.398 2.464 
5 1 5.371 17.398 1.228 
9 1 3.973 17.398 1.228 
16 1 7.043 16.167 2.464 
32 1 7.397 15.584 1.228 
40 1 8.035 14.283 1.228 
45 1 3.236 17.398 2.464 
49 1 1.81 17.398 2.464 
53 1 1.083 17.398 1.228 
4 1 10.968 8.508 2.464 
8 1 11.771 8.508 1.228 
12 1 13.168 8.508 1.228 
18 1 10.098 7.277 2.464 
21 1 8.308 3.392 2.464 
26 1 8.833 4.734 2.464 
34 1 9.745 6.694 1.228 
42 1 9.106 5.393 1.228 
48 1 13.906 8.508 2.464 
52 1 15.331 8.508 2.464 
56 1 16.058 8.508 1.228 
57 2 8.747 1.332 1.228 
58 3 9.723 1.332 1.228 
19 1 10.098 9.739 2.464 
24 1 8.308 13.624 2.464 
27 1 8.833 12.282 2.464 
35 1 9.745 10.322 1.228 
43 1 9.106 11.623 1.228 
3 1 22.577 8.508 2.464 
7 1 21.775 8.508 1.228 
11 1 20.377 8.508 1.228 
20 1 23.447 7.277 2.464 
36 1 23.801 6.694 1.228 
44 1 24.439 5.393 1.228 
47 1 19.64 8.508 2.464 
51 1 18.214 8.508 2.464 
55 1 17.487 8.508 1.228 
17 1 23.447 9.739 2.464 
33 1 23.801 10.322 1.228 
41 1 24.439 11.623 1.228 
15 1 26.502 0.849 2.464 
23 1 25.237 3.392 2.464 
28 1 24.712 4.734 2.464 
31 1 26.149 1.432 1.228 
39 1 25.511 2.733 1.228 
2 1 27.373 17.398 2.464 
6 1 28.175 17.398 1.228 
10 1 29.572 17.398 1.228 
14 1 26.502 16.167 2.464 
22 1 25.237 13.624 2.464 
25 1 24.712 12.282 2.464 
30 1 26.149 15.584 1.228 
38 1 25.511 14.283 1.228 
46 1 30.31 17.398 2.464 
50 1 31.735 17.398 2.464 
54 1 32.462 17.398 1.228 
ITEM: TIMESTEP
10
ITEM: NUMBER OF ATOMS
58
ITEM: BOX BOUNDS pp pp pp
0.0000000000000000e+00 3.2808000000000000e+01
0.0000000000000000e+00 1.7780000000000001e+01
0.0000000000000000e+00 2.4729999999999999e+00
ITEM: ATOMS id type x y z 
13 1 6.99085 0.799613 2.46466 
29 1 7.46568 1.44669 1.22738 
37 1 7.96989 2.78926 1.22736 
1 1 6.18269 17.4094 2.46449 
5 1 5.36699 17.3952 1.22746 
9 1 3.96946 17.3979 1.2274 
16 1 7.0441 16.1647 2.46466 
32 1 7.3979 15.5827 1.22736 
40 1 8.03486 14.282 1.22736 
45 1 3.23347 17.398 2.46461 
49 1 1.8086 17.398 2.46462 
53 1 1.08417 17.398 1.22738 
4 1 10.9741 8.51806 2.46449 
8 1 11.7726 8.5093 1.22747 
12 1 13.171 8.50799 1.2274 
18 1 10.1018 7.28601 2.46466 
21 1 8.29759 3.37626 2.46464 
26 1 8.84377 4.76341 2.46462 
34 1 9.75296 6.7147 1.22736 
42 1 9.10182 5.3893 1.22736 
48 1 13.9052 8.508 2.46461 
52 1 15.3321 8.508 2.46462 
56 1 16.0576 8.508 1.22738 
57 2 8.75907 1.26496 1.22799 
58 3 9.74232 1.31927 1.228 
19 1 10.0978 9.74054 2.46466 
24 1 8.30821 13.6226 2.46463 
27 1 8.83301 12.2829 2.46463 
35 1 9.74389 10.3238 1.22736 
43 1 9.10667 11.6234 1.22736 
3 1 22.5768 8.508 2.46449 
7 1 21.7746 8.508 1.22747 
11 1 20.3776 8.508 1.2274 
20 1 23.4471 7.27647 2.46466 
36 1 23.8011 6.69331 1.22736 
44 1 24.4386 5.39215 1.22736 
47 1 19.639 8.508 2.46461 
51 1 18.2147 8.508 2.46462 
55 1 17.4885 8.508 1.22738 
17 1 23.4471 9.73953 2.46466 
33 1 23.8011 10.3227 1.22736 
41 1 24.4386 11.6238 1.22736 
15 1 26.5024 0.84911 2.46466 
23 1 25.2373 3.39274 2.46464 
28 1 24.712 4.73284 2.46463 
31 1 26.1486 1.433 1.22736 
39 1 25.511 2.7344 1.22736 
2 1 27.3715 17.398 2.46449 
6 1 28.1741 17.398 1.22747 
10 1 29.5721 17.398 1.2274 
14 1 26.5024 16.1669 2.46466 
22 1 25.2373 13.6233 2.46464 
25 1 24.712 12.2832 2.46463 
30 1 26.1486 15.583 1.22736 
38 1 25.511 14.2816 1.22736 
46 1 30.3086 17.398 2.46461 
50 1 31.7361 17.398 2.46462 
54 1 32.4612 17.398 1.22738 
ITEM: TIMESTEP
20
ITEM: NUMBER OF ATOMS
58
ITEM: BOX BOUNDS pp pp pp
0.0000000000000000e+00 3.2808000000000000e+01
0.0000000000000000e+00 1.7780000000000001e+01
0.0000000000000000e+00 2.4729999999999999e+00
ITEM: ATOMS id type x y z 
13 1 7.01406 0.851384 2.464 
29 1 7.51257 1.35341 1.22805 
37 1 7.9022 2.81956 1.22799 
1 1 6.1701 17.4027 2.46407 
5 1 5.3662 17.3898 1.22796 
9 1 3.96845 17.3964 1.22797 
16 1 7.04346 16.1678 2.46401 
32 1 7.39578 15.587 1.22798 
40 1 8.03257 14.2874 1.228 
45 1 3.23279 17.398 2.46402 
49 1 1.80583 17.3981 2.46401 
53 1 1.081 17.398 1.22799 
4 1 10.9767 8.52482 2.46408 
8 1 11.7798 8.51439 1.22794 
12 1 13.1741 8.50778 1.22798 
18 1 10.1024 7.29729 2.464 
21 1 8.28306 3.42247 2.46397 
26 1 8.83926 4.75001 2.46403 
34 1 9.74579 6.71264 1.22799 
42 1 9.11138 5.41617 1.22798 
48 1 13.912 8.5078 2.46402 
52 1 15.3375 8.50796 2.46401 
56 1 16.0629 8.508 1.22799 
57 2 8.74966 1.19705 1.22794 
58 3 9.75533 1.2977 1.22802 
19 1 10.0939 9.74516 2.46399 
24 1 8.30644 13.6266 2.46401 
27 1 8.83121 12.2872 2.464 
35 1 9.73888 10.3267 1.22799 
43 1 9.10281 11.6285 1.228 
3 1 22.5809 8.508 2.46407 
7 1 21.7771 8.508 1.22795 
11 1 20.3813 8.508 1.22798 
20 1 23.4481 7.27628 2.46401 
36 1 23.8014 6.69257 1.22798 
44 1 24.4379 5.39215 1.228 
47 1 19.6451 8.508 2.46402 
51 1 18.2181 8.508 2.46401 
55 1 17.493 8.508 1.22799 
17 1 23.4481 9.73972 2.46401 
33 1 23.8014 10.3234 1.22798 
41 1 24.4379 11.6238 1.228 
15 1 26.5018 0.849619 2.46401 
23 1 25.238 3.39283 2.46401 
28 1 24.7116 4.73271 2.46401 
31 1 26.1488 1.43267 1.22798 
39 1 25.5118 2.73374 1.228 
2 1 27.3719 17.398 2.46407 
6 1 28.1739 17.398 1.22795 
10 1 29.5708 17.398 1.22798 
14 1 26.5018 16.1664 2.46401 
22 1 25.238 13.6232 2.46401 
25 1 24.7116 12.2833 2.46401 
30 1 26.1488 15.5833 1.22798 
38 1 25.5118 14.2823 1.228 
46 1 30.3091 17.398 2.46402 
50 1 31.7332 17.398 2.46401 
54 1 32.4596 17.398 1.22799 
ITEM: TIMESTEP
30
ITEM: NUMBER OF ATOMS
58
ITEM: BOX BOUNDS pp pp pp
0.0000000000000000e+00 3.2808000000000000e+01
0.0000000000000000e+00 1.7780000000000001e+01
0.0000000000000000e+00 2.4729999999999999e+00
ITEM: ATOMS id type x y z 
13 1 7.0216 0.833046 2.46418 
29 1 7.55317 1.35112 1.22788 
37 1 7.89488 2.82213 1.22783 
1 1 6.18099 17.4261 2.46425 
5 1 5.37451 17.3959 1.22777 
9 1 3.97639 17.3947 1.22782 
16 1 7.04035 16.1749 2.46416 
32 1 7.39068 15.5944 1.22784 
40 1 8.02964 14.2908 1.22783 
45 1 3.23647 17.3974 2.46419 
49 1 1.80977 17.3982 2.46418 
53 1 1.0825 17.3981 1.22782 
4 1 10.9749 8.5235 2.46424 
8 1 11.7781 8.51944 1.22777 
12 1 13.1734 8.50834 1.22782 
18 1 10.1008 7.29701 2.46415 
21 1 8.22772 3.43818 2.46415 
26 1 8.83551 4.75605 2.46417 
34 1 9.74628 6.71492 1.22784 
42 1 9.10955 5.40256 1.22783 
48 1 13.9116 8.50732 2.46419 
52 1 15.3392 8.50777 2.46418 
56 1 16.0645 8.50799 1.22782 
57 2 8.74335 1.16173 1.22792 
58 3 9.75145 1.26863 1.22802 
19 1 10.0945 9.7481 2.46416 
24 1 8.303 13.6341 2.46417 
27 1 8.82856 12.2935 2.46417 
35 1 9.73579 10.3311 1.22784 
43 1 9.1014 11.631 1.22783 
3 1 22.5806 8.508 2.46424 
7 1 21.7784 8.508 1.22777 
11 1 20.3813 8.508 1.22782 
20 1 23.4505 7.27683 2.46416 
36 1 23.8027 6.6931 1.22783 
44 1 24.4382 5.39231 1.22783 
47 1 19.6452 8.508 2.46419 
51 1 18.2196 8.508 2.46418 
55 1 17.4939 8.50801 1.22782 
17 1 23.4505 9.73917 2.46416 
33 1 23.8027 10.3229 1.22783 
41 1 24.4382 11.6237 1.22783 
15 1 26.5013 0.848231 2.46416 
23 1 25.2387 3.39159 2.46417 
28 1 24.7117 4.73216 2.46417 
31 1 26.1484 1.43125 1.22783 
39 1 25.5121 2.73258 1.22783 
2 1 27.3738 17.398 2.46424 
6 1 28.174 17.398 1.22777 
10 1 29.5709 17.398 1.22782 
14 1 26.5013 16.1678 2.46416 
22 1 25.2387 13.6244 2.46417 
25 1 24.7117 12.2838 2.46417 
30 1 26.1484 15.5847 1.22783 
38 1 25.5121 14.2834 1.22783 
46 1 30.3096 17.398 2.46419 
50 1 31.7349 17.398 2.46418 
54 1 32.4615 17.398 1.22782 
ITEM: TIMESTEP
40
ITEM: NUMBER OF ATOMS
58
ITEM: BOX BOUNDS pp pp pp
0.0000000000000000e+00 3.2808000000000000e+01
0.0000000000000000e+00 1.7780000000000001e+01
0.0000000000000000e+00 2.4729999999999999e+00
ITEM: ATOMS id type x y z 
13 1 7.03838 0.823742 2.46446 
29 1 7.58002 1.34708 1.22761 
37 1 7.89678 2.84253 1.22759 
1 1 6.18617 17.434 2.46427 
5 1 5.3759 17.4105 1.22773 
9 1 3.97777 17.3938 1.22764 
16 1 7.03699 16.1811 2.46441 
32 1 7.38716 15.5959 1.22761 
40 1 8.02568 14.292 1.2276 
45 1 3.23983 17.3957 2.46436 
49 1 1.81476 17.3981 2.46438 
53 1 1.08808 17.3982 1.22762 
4 1 10.9709 8.52654 2.46427 
8 1 11.7708 8.52299 1.22772 
12 1 13.1709 8.50974 1.22763 
18 1 10.1007 7.29243 2.46441 
21 1 8.178 3.45075 2.4644 
26 1 8.81885 4.76253 2.46439 
34 1 9.74997 6.70988 1.2276 
42 1 9.1141 5.40068 1.2276 
48 1 13.9079 8.50698 2.46436 
52 1 15.3336 8.50735 2.46438 
56 1 16.0601 8.50789 1.22762 
57 2 8.74897 1.13601 1.22791 
58 3 9.74464 1.22896 1.22802 
19 1 10.0962 9.75353 2.4644 
24 1 8.30012 13.6369 2.4644 
27 1 8.82884 12.2941 2.46439 
35 1 9.73925 10.3332 1.22761 
43 1 9.10215 11.6349 1.2276 
3 1 22.58 8.508 2.46427 
7 1 21.7791 8.508 1.22771 
11 1 20.3802 8.508 1.22763 
20 1 23.4518 7.27711 2.4644 
36 1 23.8042 6.69331 1.22761 
44 1 24.4388 5.39035 1.2276 
47 1 19.6415 8.508 2.46436 
51 1 18.2173 8.50801 2.46438 
55 1 17.4892 8.50803 1.22762 
17 1 23.4518 9.73889 2.4644 
33 1 23.8042 10.3227 1.22761 
41 1 24.4388 11.6257 1.2276 
15 1 26.5032 0.846728 2.4644 
23 1 25.2394 3.39058 2.4644 
28 1 24.712 4.73094 2.46439 
31 1 26.1489 1.4292 1.22761 
39 1 25.513 2.73123 1.2276 
2 1 27.3764 17.398 2.46427 
6 1 28.1784 17.398 1.22771 
10 1 29.5753 17.398 1.22763 
14 1 26.5032 16.1693 2.4644 
22 1 25.2394 13.6254 2.4644 
25 1 24.712 12.2851 2.46439 
30 1 26.1489 15.5868 1.22761 
38 1 25.513 14.2848 1.2276 
46 1 30.3128 17.398 2.46436 
50 1 31.7391 17.398 2.46438 
54 1 32.4658 17.398 1.22762 
ITEM: TIMESTEP
50
ITEM: NUMBER OF ATOMS
58
ITEM: BOX BOUNDS pp pp pp
0.0000000000000000e+00 3.2808000000000000e+01
0.0000000000000000e+00 1.7780000000000001e+01
0.0000000000000000e+00 2.4729999999999999e+00
ITEM: ATOMS id type x y z 
13 1 7.05197 0.824035 2.46447 
29 1 7.59008 1.3483 1.2276 
37 1 7.88629 2.84005 1.22757 
1 1 6.1887 17.4403 2.46423 
5 1 5.37935 17.4232 1.22778 
9 1 3.98098 17.3959 1.22764 
16 1 7.03306 16.1829 2.46444 
32 1 7.38276 15.5978 1.22759 
40 1 8.02172 14.2925 1.22759 
45 1 3.24327 17.3939 2.46436 
49 1 1.81787 17.3971 2.46438 
53 1 1.09037 17.3982 1.22762 
4 1 10.9697 8.52592 2.46423 
8 1 11.7688 8.52372 1.22775 
12 1 13.1695 8.5109 1.22763 
18 1 10.1045 7.2902 2.46444 
21 1 8.16001 3.45901 2.46443 
26 1 8.80158 4.76962 2.4644 
34 1 9.75641 6.70625 1.22757 
42 1 9.10792 5.40046 1.22759 
48 1 13.9066 8.50745 2.46436 
52 1 15.3317 8.50694 2.46438 
56 1 16.0595 8.50759 1.22762 
57 2 8.75047 1.12794 1.22789 
58 3 9.7491 1.19069 1.22802 
19 1 10.0971 9.75622 2.46443 
24 1 8.29689 13.6381 2.46441 
27 1 8.82902 12.2963 2.4644 
35 1 9.74226 10.3376 1.22759 
43 1 9.10381 11.6386 1.22759 
3 1 22.5796 8.508 2.46423 
7 1 21.7781 8.508 1.22775 
11 1 20.3794 8.508 1.22763 
20 1 23.4496 7.27641 2.46442 
36 1 23.8028 6.69251 1.22759 
44 1 24.4375 5.38931 1.22759 
47 1 19.6404 8.50801 2.46436 
51 1 18.2164 8.50804 2.46438 
55 1 17.4878 8.50803 1.22762 
17 1 23.4496 9.73959 2.46442 
33 1 23.8028 10.3235 1.22759 
41 1 24.4375 11.6267 1.22759 
15 1 26.5059 0.848028 2.46443 
23 1 25.2401 3.39065 2.46441 
28 1 24.7112 4.73069 2.4644 
31 1 26.1509 1.43031 1.22758 
39 1 25.5147 2.7315 1.22759 
2 1 27.3784 17.398 2.46423 
6 1 28.1801 17.398 1.22775 
10 1 29.5783 17.398 1.22763 
14 1 26.5059 16.168 2.46443 
22 1 25.2401 13.6254 2.46441 
25 1 24.7112 12.2853 2.4644 
30 1 26.1509 15.5857 1.22758 
38 1 25.5147 14.2845 1.22759 
46 1 30.3154 17.398 2.46436 
50 1 31.7418 17.398 2.46438 
54 1 32.4684 17.3982 1.22762 
ITEM: TIMESTEP
60
ITEM: NUMBER OF ATOMS
58
ITEM: BOX BOUNDS pp pp pp
0.0000000000000000e+00 3.2808000000000000e+01
0.0000000000000000e+00 1.7780000000000001e+01
0.0000000000000000e+00 2.4729999999999999e+00
ITEM: ATOMS id type x y z 
13 1 7.05985 0.826971 2.46427 
29 1 7.59286 1.3507 1.22778 
37 1 7.88236 2.8346 1.22776 
1 1 6.18909 17.4417 2.46427 
5 1 5.38205 17.4285 1.22776 
9 1 3.9827 17.3977 1.22776 
16 1 7.03161 16.1815 2.46424 
32 1 7.37994 15.597 1.22777 
40 1 8.01695 14.2966 1.22775 
45 1 3.24427 17.3937 2.46425 
49 1 1.81895 17.3963 2.46425 
53 1 1.09152 17.3978 1.22775 
4 1 10.9676 8.52625 2.46426 
8 1 11.7707 8.52426 1.22774 
12 1 13.1692 8.51149 1.22775 
18 1 10.1065 7.28791 2.46423 
21 1 8.15212 3.46466 2.46424 
26 1 8.79098 4.76994 2.46425 
34 1 9.75766 6.70252 1.22776 
42 1 9.10368 5.40463 1.22775 
48 1 13.9063 8.50785 2.46425 
52 1 15.3317 8.5068 2.46425 
56 1 16.059 8.50737 1.22775 
57 2 8.75305 1.12556 1.22788 
58 3 9.75132 1.16809 1.22802 
19 1 10.0979 9.75698 2.46424 
24 1 8.29496 13.6384 2.46425 
27 1 8.82886 12.2991 2.46425 
35 1 9.74388 10.3397 1.22776 
43 1 9.10406 11.643 1.22775 
3 1 22.5788 8.508 2.46426 
7 1 21.7771 8.508 1.22774 
11 1 20.3786 8.508 1.22775 
20 1 23.4482 7.27579 2.46424 
36 1 23.801 6.69213 1.22776 
44 1 24.4359 5.38969 1.22775 
47 1 19.6414 8.50802 2.46425 
51 1 18.2158 8.50806 2.46425 
55 1 17.489 8.50798 1.22775 
17 1 23.4482 9.74021 2.46424 
33 1 23.801 10.3239 1.22776 
41 1 24.4359 11.6263 1.22775 
15 1 26.508 0.848292 2.46424 
23 1 25.2408 3.39072 2.46425 
28 1 24.7104 4.73086 2.46425 
31 1 26.1533 1.43029 1.22776 
39 1 25.5154 2.73289 1.22775 
2 1 27.3798 17.398 2.46426 
6 1 28.1817 17.398 1.22774 
10 1 29.5809 17.398 1.22775 
14 1 26.508 16.1677 2.46424 
22 1 25.2408 13.6253 2.46425 
25 1 24.7104 12.2851 2.46425 
30 1 26.1533 15.5857 1.22776 
38 1 25.5154 14.2831 1.22775 
46 1 30.318 17.398 2.46425 
50 1 31.7423 17.3981 2.46425 
54 1 32.4704 17.3982 1.22775 
ITEM: TIMESTEP
70
ITEM: NUMBER OF ATOMS
58
ITEM: BOX BOUNDS pp pp pp
0.0000000000000000e+00 3.2808000000000000e+01
0.0000000000000000e+00 1.7780000000000001e+01
0.0000000000000000e+00 2.4729999999999999e+00
ITEM: ATOMS id type x y z 
13 1 7.0644 0.827421 2.46428 
29 1 7.59654 1.35156 1.22778 
37 1 7.88045 2.83521 1.22776 
1 1 6.19003 17.4455 2.46426 
5 1 5.38335 17.4337 1.22776 
9 1 3.98403 17.3996 1.22776 
16 1 7.02918 16.1823 2.46425 
32 1 7.37656 15.5977 1.22776 
40 1 8.01468 14.2954 1.22775 
45 1 3.24595 17.3939 2.46425 
49 1 1.82124 17.3955 2.46425 
53 1 1.09316 17.3973 1.22775 
4 1 10.9673 8.5262 2.46425 
8 1 11.7697 8.52486 1.22775 
12 1 13.1681 8.5121 1.22775 
18 1 10.1086 7.28598 2.46425 
21 1 8.14483 3.46771 2.46425 
26 1 8.78228 4.77384 2.46425 
34 1 9.75948 6.70111 1.22775 
42 1 9.0977 5.40618 1.22775 
48 1 13.9057 8.50827 2.46425 
52 1 15.3311 8.5067 2.46425 
56 1 16.0584 8.50716 1.22775 
57 2 8.75547 1.12268 1.22787 
58 3 9.75338 1.14594 1.22801 
19 1 10.0986 9.7583 2.46425 
24 1 8.29281 13.6391 2.46425 
27 1 8.82938 12.3005 2.46425 
35 1 9.74549 10.3422 1.22775 
43 1 9.10629 11.6437 1.22775 
3 1 22.5785 8.508 2.46425 
7 1 21.7766 8.508 1.22775 
11 1 20.3782 8.50801 1.22775 
20 1 23.4468 7.27521 2.46425 
36 1 23.7993 6.69125 1.22775 
44 1 24.4349 5.38847 1.22775 
47 1 19.6406 8.50804 2.46425 
51 1 18.2152 8.50806 2.46425 
55 1 17.4881 8.5079 1.22775 
17 1 23.4468 9.74079 2.46425 
33 1 23.7993 10.3247 1.22775 
41 1 24.4349 11.6275 1.22775 
15 1 26.51 0.848956 2.46425 
23 1 25.2415 3.39084 2.46425 
28 1 24.7097 4.73046 2.46425 
31 1 26.1552 1.43171 1.22775 
39 1 25.517 2.73314 1.22775 
2 1 27.3813 17.398 2.46425 
6 1 28.1828 17.398 1.22775 
10 1 29.5811 17.398 1.22775 
14 1 26.51 16.167 2.46425 
22 1 25.2415 13.6252 2.46425 
25 1 24.7097 12.2855 2.46425 
30 1 26.1552 15.5843 1.22775 
38 1 25.517 14.2829 1.22775 
46 1 30.319 17.398 2.46425 
50 1 31.7445 17.3982 2.46425 
54 1 32.4719 17.3982 1.22775 
ITEM: TIMESTEP
80
ITEM: NUMBER OF ATOMS
58
ITEM: BOX BOUNDS pp pp pp
0.0000000000000000e+00 3.2808000000000000e+01
0.0000000000000000e+00 1.7780000000000001e+01
0.0000000000000000e+00 2.4729999999999999e+00
ITEM: ATOMS id type x y z 
13 1 7.06888 0.827975 2.46428 
29 1 7.60166 1.35193 1.22778 
37 1 7.88171 2.83548 1.22776 
1 1 6.19151 17.4482 2.46426 
5 1 5.38473 17.4389 1.22776 
9 1 3.98542 17.4019 1.22776 
16 1 7.02676 16.1825 2.46425 
32 1 7.37293 15.5976 1.22776 
40 1 8.01118 14.2954 1.22775 
45 1 3.24729 17.3944 2.46426 
49 1 1.82225 17.3946 2.46425 
53 1 1.09455 17.3966 1.22775 
4 1 10.9662 8.52634 2.46425 
8 1 11.7692 8.52559 1.22775 
12 1 13.1677 8.51281 1.22775 
18 1 10.1105 7.28431 2.46424 
21 1 8.1384 3.47038 2.46425 
26 1 8.77234 4.77802 2.46425 
34 1 9.76046 6.69981 1.22775 
42 1 9.09085 5.40924 1.22775 
48 1 13.9052 8.50876 2.46425 
52 1 15.3308 8.50662 2.46425 
56 1 16.0579 8.50695 1.22775 
57 2 8.75738 1.11806 1.22787 
58 3 9.75325 1.12419 1.228 
19 1 10.0994 9.75961 2.46424 
24 1 8.29061 13.639 2.46425 
27 1 8.83006 12.3023 2.46425 
35 1 9.74753 10.3442 1.22776 
43 1 9.10822 11.6458 1.22775 
3 1 22.5779 8.508 2.46425 
7 1 21.776 8.508 1.22775 
11 1 20.3776 8.50803 1.22775 
20 1 23.4452 7.27446 2.46424 
36 1 23.7972 6.6904 1.22776 
44 1 24.4332 5.38767 1.22775 
47 1 19.6402 8.50806 2.46425 
51 1 18.2145 8.50803 2.46425 
55 1 17.4877 8.50779 1.22775 
17 1 23.4452 9.74154 2.46424 
33 1 23.7972 10.3256 1.22776 
41 1 24.4332 11.6283 1.22775 
15 1 26.5124 0.849677 2.46424 
23 1 25.2425 3.39112 2.46425 
28 1 24.7088 4.72994 2.46425 
31 1 26.1581 1.43235 1.22775 
39 1 25.5189 2.7337 1.22775 
2 1 27.3823 17.398 2.46425 
6 1 28.1843 17.398 1.22775 
10 1 29.5832 17.398 1.22775 
14 1 26.5124 16.1663 2.46424 
22 1 25.2425 13.6249 2.46425 
25 1 24.7088 12.2861 2.46425 
30 1 26.1581 15.5836 1.22775 
38 1 25.5189 14.2823 1.22775 
46 1 30.3206 17.3981 2.46425 
50 1 31.7456 17.3983 2.46425 
54 1 32.4736 17.3982 1.22775 
ITEM: TIMESTEP
90
ITEM: NUMBER OF ATOMS
58
ITEM: BOX BOUNDS pp pp pp
0.0000000000000000e+00 3.2808000000000000e+01
0.0000000000000000e+00 1.7780000000000001e+01
0.0000000000000000e+00 2.4729999999999999e+00
ITEM: ATOMS id type x y z 
13 1 7.0747 0.829163 2.46427 
29 1 7.60754 1.35335 1.22778 
37 1 7.88196 2.83667 1.22776 
1 1 6.19339 17.4524 2.46426 
5 1 5.38672 17.4457 1.22776 
9 1 3.98716 17.4053 1.22776 
16 1 7.02333 16.1829 2.46425 
32 1 7.36792 15.597 1.22776 
40 1 8.00604 14.2952 1.22775 
45 1 3.24949 17.3957 2.46426 
49 1 1.82455 17.3936 2.46425 
53 1 1.09662 17.3955 1.22775 
4 1 10.9653 8.52632 2.46425 
8 1 11.7685 8.52638 1.22775 
12 1 13.1664 8.51385 1.22775 
18 1 10.1121 7.28257 2.46424 
21 1 8.13178 3.47339 2.46425 
26 1 8.75888 4.78395 2.46425 
34 1 9.76038 6.69884 1.22776 
42 1 9.08046 5.41416 1.22775 
48 1 13.9044 8.50951 2.46425 
52 1 15.33 8.50658 2.46425 
56 1 16.057 8.50668 1.22775 
57 2 8.76041 1.11097 1.22786 
58 3 9.75535 1.09181 1.22799 
19 1 10.1004 9.76127 2.46424 
24 1 8.28713 13.6395 2.46425 
27 1 8.83129 12.3045 2.46425 
35 1 9.75019 10.3469 1.22776 
43 1 9.11129 11.6482 1.22775 
3 1 22.5772 8.508 2.46425 
7 1 21.7753 8.508 1.22775 
11 1 20.3768 8.50806 1.22775 
20 1 23.4431 7.27339 2.46424 
36 1 23.7943 6.68878 1.22776 
44 1 24.4307 5.38625 1.22775 
47 1 19.6398 8.50809 2.46425 
51 1 18.2136 8.50795 2.46425 
55 1 17.4871 8.5076 1.22775 
17 1 23.4431 9.74261 2.46424 
33 1 23.7943 10.3272 1.22776 
41 1 24.4307 11.6297 1.22775 
15 1 26.5158 0.850664 2.46424 
23 1 25.2442 3.39139 2.46425 
28 1 24.7074 4.72913 2.46425 
31 1 26.162 1.43394 1.22776 
39 1 25.5217 2.73481 1.22775 
2 1 27.3846 17.398 2.46425 
6 1 28.1863 17.398 1.22775 
10 1 29.5848 17.398 1.22775 
14 1 26.5158 16.1653 2.46424 
22 1 25.2442 13.6246 2.46425 
25 1 24.7074 12.2869 2.46425 
30 1 26.162 15.5821 1.22776 
38 1 25.5217 14.2812 1.22775 
46 1 30.3229 17.3982 2.46425 
50 1 31.7479 17.3983 2.46425 
54 1 32.4757 17.3979 1.22775 
ITEM: TIMESTEP
100
ITEM: NUMBER OF ATOMS
58
ITEM: BOX BOUNDS pp pp pp
0.0000000000000000e+00 3.2808000000000000e+01
0.0000000000000000e+00 1.7780000000000001e+01
0.0000000000000000e+00 2.4729999999999999e+00
ITEM: ATOMS id type x y z 
13 1 7.07718 0.830194 2.46427 
29 1 7.61071 1.35466 1.22778 
37 1 7.88208 2.8369 1.22776 
1 1 6.195 17.4546 2.46426 
5 1 5.38688 17.4488 1.22776 
9 1 3.98852 17.4071 1.22776 
16 1 7.02168 16.1834 2.46426 
32 1 7.36554 15.5967 1.22775 
40 1 8.00457 14.2926 1.22775 
45 1 3.25132 17.3966 2.46426 
49 1 1.82514 17.3932 2.46425 
53 1 1.09797 17.3949 1.22775 
4 1 10.9642 8.52702 2.46425 
8 1 11.7667 8.52659 1.22775 
12 1 13.1657 8.51434 1.22775 
18 1 10.1123 7.28209 2.46425 
21 1 8.1293 3.4747 2.46426 
26 1 8.75373 4.78839 2.46425 
34 1 9.76019 6.70035 1.22775 
42 1 9.07487 5.41599 1.22775 
48 1 13.9037 8.50992 2.46425 
52 1 15.3284 8.5066 2.46425 
56 1 16.0567 8.50658 1.22775 
57 2 8.76203 1.10744 1.22786 
58 3 9.75654 1.07532 1.22799 
19 1 10.1011 9.76239 2.46425 
24 1 8.28538 13.6396 2.46425 
27 1 8.83266 12.3039 2.46425 
35 1 9.75187 10.3477 1.22775 
43 1 9.11284 11.6497 1.22775 
3 1 22.5775 8.508 2.46425 
7 1 21.7749 8.50801 1.22775 
11 1 20.3765 8.50807 1.22775 
20 1 23.4421 7.27295 2.46425 
36 1 23.7928 6.68806 1.22775 
44 1 24.4293 5.38562 1.22775 
47 1 19.6385 8.50809 2.46425 
51 1 18.2142 8.50789 2.46425 
55 1 17.4859 8.50749 1.22775 
17 1 23.4421 9.74305 2.46425 
33 1 23.7928 10.3279 1.22775 
41 1 24.4293 11.6304 1.22775 
15 1 26.5176 0.851234 2.46425 
23 1 25.2452 3.39131 2.46425 
28 1 24.7067 4.72855 2.46425 
31 1 26.1642 1.43445 1.22775 
39 1 25.5236 2.73479 1.22775 
2 1 27.3852 17.398 2.46425 
6 1 28.1872 17.398 1.22775 
10 1 29.5855 17.3981 1.22775 
14 1 26.5175 16.1648 2.46425 
22 1 25.2452 13.6247 2.46425 
25 1 24.7067 12.2874 2.46425 
30 1 26.1642 15.5815 1.22775 
38 1 25.5236 14.2812 1.22775 
46 1 30.3234 17.3982 2.46425 
50 1 31.7486 17.3982 2.46425 
54 1 32.476 17.3976 1.22775 
ITEM: TIMESTEP
110
ITEM: NUMBER OF ATOMS
58
ITEM: BOX BOUNDS pp pp pp
0.0000000000000000e+00 3.2808000000000000e+01
0.0000000000000000e+00 1.7780000000000001e+01
0.0000000000000000e+00 2.4729999999999999e+00
ITEM: ATOMS id type x y z 
13 1 7.11968 0.844941 2.46427 
29 1 7.6591 1.36564 1.22777 
37 1 7.88823 2.84876 1.22777 
1 1 6.21382 17.4877 2.46427 
5 1 5.40618 17.5017 1.22777 
9 1 4.00717 17.4395 1.22777 
16 1 6.99481 16.1869 2.46426 
32 1 7.3224 15.5914 1.22777 
40 1 7.95943 14.2874 1.22776 
45 1 3.26989 17.4137 2.46426 
49 1 1.84501 17.3869 2.46426 
53 1 1.11705 17.3848 1.22776 
4 1 10.9552 8.52642 2.46425 
8 1 11.7586 8.52813 1.22775 
12 1 13.1578 8.52248 1.22775 
18 1 10.1077 7.2785 2.46426 
21 1 8.08921 3.49807 2.46427 
26 1 8.65203 4.83834 2.46427 
34 1 9.73735 6.70682 1.22776 
42 1 8.98467 5.46382 1.22777 
48 1 13.8961 8.5171 2.46425 
52 1 15.3212 8.50741 2.46425 
56 1 16.0489 8.50506 1.22775 
57 2 8.79533 1.04081 1.22781 
58 3 9.77032 0.783623 1.22787 
19 1 10.1106 9.77625 2.46425 
24 1 8.25535 13.6396 2.46426 
27 1 8.84367 12.3219 2.46426 
35 1 9.77298 10.3691 1.22775 
43 1 9.13721 11.6729 1.22775 
3 1 22.5711 8.50798 2.46425 
7 1 21.7683 8.5081 1.22775 
11 1 20.3696 8.50834 1.22775 
20 1 23.4233 7.26387 2.46425 
36 1 23.7669 6.67452 1.22775 
44 1 24.4053 5.37248 1.22775 
47 1 19.6317 8.50811 2.46425 
51 1 18.206 8.50661 2.46425 
55 1 17.4785 8.50548 1.22775 
17 1 23.4233 9.7521 2.46425 
33 1 23.7669 10.3415 1.22775 
41 1 24.4053 11.6435 1.22775 
15 1 26.5476 0.859852 2.46425 
23 1 25.2616 3.39491 2.46425 
28 1 24.6928 4.72037 2.46425 
31 1 26.1999 1.44676 1.22775 
39 1 25.552 2.7443 1.22775 
2 1 27.4031 17.398 2.46425 
6 1 28.2057 17.3981 1.22775 
10 1 29.6046 17.399 1.22775 
14 1 26.5475 16.1561 2.46425 
22 1 25.2615 13.6211 2.46425 
25 1 24.6928 12.2956 2.46425 
30 1 26.1998 15.5692 1.22775 
38 1 25.5519 14.2717 1.22775 
46 1 30.3431 17.3992 2.46425 
50 1 31.768 17.3968 2.46426 
54 1 32.4959 17.3927 1.22776 
ITEM: TIMESTEP
120
ITEM: NUMBER OF ATOMS
58
ITEM: BOX BOUNDS pp pp pp
0.0000000000000000e+00 3.2808000000000000e+01
0.0000000000000000e+00 1.7780000000000001e+01
0.0000000000000000e+00 2.4729999999999999e+00
ITEM: ATOMS id type x y z 
13 1 7.12069 0.845001 2.46427 
29 1 7.66058 1.36521 1.22777 
37 1 7.89094 2.84842 1.22777 
1 1 6.21507 17.488 2.46427 
5 1 5.40718 17.5006 1.22777 
9 1 4.00824 17.4403 1.22776 
16 1 6.99529 16.1871 2.46426 
32 1 7.32272 15.5917 1.22776 
40 1 7.95914 14.2875 1.22776 
45 1 3.27006 17.415 2.46426 
49 1 1.84602 17.3879 2.46426 
53 1 1.11757 17.3852 1.22776 
4 1 10.9558 8.52681 2.46425 
8 1 11.7583 8.52651 1.22775 
12 1 13.1585 8.52195 1.22775 
18 1 10.1028 7.28215 2.46426 
21 1 8.09266 3.49699 2.46427 
26 1 8.65507 4.8368 2.46427 
34 1 9.73245 6.71069 1.22776 
42 1 8.98546 5.46404 1.22777 
48 1 13.8958 8.51714 2.46425 
52 1 15.3213 8.50784 2.46425 
56 1 16.0489 8.50538 1.22775 
57 2 8.7954 1.03458 1.22782 
58 3 9.76189 0.783341 1.22787 
19 1 10.1114 9.77692 2.46425 
24 1 8.25492 13.6396 2.46426 
27 1 8.84306 12.3221 2.46426 
35 1 9.77305 10.3691 1.22775 
43 1 9.13634 11.6733 1.22776 
3 1 22.5705 8.50799 2.46425 
7 1 21.7683 8.50811 1.22775 
11 1 20.3691 8.50831 1.22775 
20 1 23.4228 7.26376 2.46425 
36 1 23.7664 6.67441 1.22775 
44 1 24.4049 5.37219 1.22775 
47 1 19.6295 8.50801 2.46425 
51 1 18.2057 8.50647 2.46425 
55 1 17.4775 8.50544 1.22775 
17 1 23.4229 9.75221 2.46425 
33 1 23.7665 10.3416 1.22775 
41 1 24.4049 11.6438 1.22775 
15 1 26.5482 0.860079 2.46425 
23 1 25.262 3.39529 2.46425 
28 1 24.6927 4.72001 2.46425 
31 1 26.2005 1.4468 1.22775 
39 1 25.5529 2.74418 1.22775 
2 1 27.4036 17.398 2.46425 
6 1 28.2062 17.3982 1.22775 
10 1 29.6052 17.3991 1.22775 
14 1 26.5482 16.1559 2.46425 
22 1 25.262 13.6207 2.46425 
25 1 24.6927 12.296 2.46425 
30 1 26.2005 15.5692 1.22775 
38 1 25.5528 14.2718 1.22775 
46 1 30.3428 17.3991 2.46425 
50 1 31.769 17.3962 2.46426 
54 1 32.4965 17.3921 1.22776 
ITEM: TIMESTEP
130
ITEM: NUMBER OF ATOMS
58
ITEM: BOX BOUNDS pp pp pp
0.0000000000000000e+00 3.2808000000000000e+01
0.0000000000000000e+00 1.7780000000000001e+01
0.0000000000000000e+00 2.4729999999999999e+00
ITEM: ATOMS id type x y z 
13 1 7.12253 0.846746 2.46428 
29 1 7.6655 1.36304 1.22778 
37 1 7.9094 2.84323 1.22777 
1 1 6.21571 17.4894 2.46427 
5 1 5.40884 17.4997 1.22777 
9 1 4.01009 17.4449 1.22776 
16 1 6.99933 16.1895 2.46426 
32 1 7.32606 15.5926 1.22776 
40 1 7.95805 14.288 1.22776 
45 1 3.27274 17.4229 2.46426 
49 1 1.84865 17.3942 2.46426 
53 1 1.12039 17.3879 1.22776 
4 1 10.956 8.52808 2.46426 
8 1 11.757 8.51788 1.22776 
12 1 13.1565 8.51836 1.22775 
18 1 10.0742 7.30338 2.46426 
21 1 8.11503 3.49058 2.46427 
26 1 8.67273 4.83217 2.46426 
34 1 9.70306 6.73198 1.22776 
42 1 8.98902 5.46661 1.22776 
48 1 13.8948 8.51685 2.46425 
52 1 15.3193 8.51038 2.46425 
56 1 16.0471 8.50749 1.22775 
57 2 8.77846 1.00772 1.22781 
58 3 9.73824 0.768743 1.22785 
19 1 10.1161 9.78135 2.46426 
24 1 8.25279 13.6385 2.46426 
27 1 8.83969 12.3202 2.46426 
35 1 9.77409 10.3709 1.22776 
43 1 9.13282 11.6724 1.22776 
3 1 22.5688 8.50807 2.46425 
7 1 21.7674 8.50818 1.22775 
11 1 20.3682 8.50798 1.22775 
20 1 23.4197 7.26231 2.46425 
36 1 23.7631 6.67227 1.22775 
44 1 24.4017 5.37081 1.22775 
47 1 19.6292 8.50735 2.46425 
51 1 18.2052 8.50566 2.46425 
55 1 17.4763 8.50533 1.22775 
17 1 23.4199 9.75373 2.46425 
33 1 23.7633 10.3438 1.22775 
41 1 24.4018 11.6453 1.22775 
15 1 26.5523 0.861309 2.46425 
23 1 25.2657 3.39578 2.46425 
28 1 24.6912 4.71936 2.46425 
31 1 26.2048 1.44856 1.22775 
39 1 25.5577 2.74577 1.22775 
2 1 27.4061 17.398 2.46425 
6 1 28.2087 17.3986 1.22775 
10 1 29.6079 17.3994 1.22775 
14 1 26.5525 16.1547 2.46425 
22 1 25.2658 13.6203 2.46425 
25 1 24.6912 12.2967 2.46425 
30 1 26.205 15.5675 1.22775 
38 1 25.5577 14.2703 1.22775 
46 1 30.3457 17.3981 2.46425 
50 1 31.7711 17.3922 2.46426 
54 1 32.4988 17.3887 1.22776 
ITEM: TIMESTEP
133
ITEM: NUMBER OF ATOMS
58
ITEM: BOX BOUNDS pp pp pp
0.0000000000000000e+00 3.2808000000000000e+01
0.0000000000000000e+00 1.7780000000000001e+01
0.0000000000000000e+00 2.4729999999999999e+00
ITEM: ATOMS id type x y z 
13 1 7.12253 0.846749 2.46428 
29 1 7.6655 1.36304 1.22778 
37 1 7.9094 2.84323 1.22777 
1 1 6.21574 17.4894 2.46427 
5 1 5.40884 17.4997 1.22777 
9 1 4.01008 17.4449 1.22776 
16 1 6.99934 16.1895 2.46426 
32 1 7.32605 15.5926 1.22776 
40 1 7.95806 14.288 1.22776 
45 1 3.27273 17.4229 2.46426 
49 1 1.84862 17.3942 2.46426 
53 1 1.12038 17.3879 1.22776 
4 1 10.956 8.52806 2.46426 
8 1 11.757 8.51788 1.22776 
12 1 13.1565 8.51835 1.22775 
18 1 10.0742 7.30338 2.46426 
21 1 8.11504 3.49058 2.46427 
26 1 8.67274 4.83218 2.46426 
34 1 9.70306 6.73199 1.22776 
42 1 8.98902 5.46661 1.22776 
48 1 13.8948 8.51685 2.46425 
52 1 15.3193 8.51038 2.46425 
56 1 16.0471 8.50749 1.22775 
57 2 8.77846 1.00772 1.22781 
58 3 9.73824 0.768735 1.22785 
19 1 10.1161 9.78135 2.46426 
24 1 8.25279 13.6385 2.46426 
27 1 8.83967 12.3203 2.46426 
35 1 9.7741 10.3709 1.22776 
43 1 9.13282 11.6724 1.22776 
3 1 22.5689 8.50807 2.46425 
7 1 21.7674 8.50818 1.22775 
11 1 20.3682 8.50798 1.22775 
20 1 23.4197 7.2623 2.46425 
36 1 23.7631 6.67229 1.22775 
44 1 24.4017 5.3708 1.22775 
47 1 19.6292 8.50735 2.46425 
51 1 18.2052 8.50566 2.46425 
55 1 17.4763 8.50533 1.22775 
17 1 23.4199 9.75373 2.46425 
33 1 23.7633 10.3438 1.22775 
41 1 24.4018 11.6453 1.22775 
15 1 26.5523 0.861307 2.46425 
23 1 25.2657 3.3958 2.46425 
28 1 24.6912 4.71935 2.46425 
31 1 26.2048 1.44855 1.22775 
39 1 25.5577 2.74578 1.22775 
2 1 27.4061 17.398 2.46425 
6 1 28.2087 17.3986 1.22775 
10 1 29.6079 17.3994 1.22775 
14 1 26.5525 16.1547 2.46425 
22 1 25.2657 13.6203 2.46425 
25 1 24.6912 12.2968 2.46425 
30 1 26.205 15.5675 1.22775 
38 1 25.5577 14.2703 1.22775 
46 1 30.3457 17.3981 2.46425 
50 1 31.7711 17.3922 2.46426 
54 1 32.4988 17.3887 1.22776 
ITEM: TIMESTEP
134
ITEM: NUMBER OF ATOMS
58
ITEM: BOX BOUNDS pp pp pp
0.0000000000000000e+00 3.2808000000000000e+01
0.0000000000000000e+00 1.7780000000000001e+01
0.0000000000000000e+00 2.4729999999999999e+00
ITEM: ATOMS id type x y z 
13 1 7.12253 0.846749 2.46428 
29 1 7.6655 1.36304 1.22778 
37 1 7.9094 2.84323 1.22777 
21 1 8.11504 3.49058 2.46427 
1 1 6.21574 17.4894 2.46427 
5 1 5.40884 17.4997 1.22777 
9 1 4.01008 17.4449 1.22776 
16 1 6.99934 16.1895 2.46426 
32 1 7.32605 15.5926 1.22776 
40 1 7.95806 14.288 1.22776 
45 1 3.27273 17.4229 2.46426 
49 1 1.84862 17.3942 2.46426 
53 1 1.12038 17.3879 1.22776 
4 1 10.956 8.52806 2.46426 
8 1 11.757 8.51788 1.22776 
12 1 13.1565 8.51835 1.22775 
18 1 10.0742 7.30338 2.46426 
58 3 9.73824 0.768735 1.22785 
26 1 8.67274 4.83218 2.46426 
34 1 9.70306 6.73199 1.22776 
42 1 8.98902 5.46661 1.22776 
48 1 13.8948 8.51685 2.46425 
52 1 15.3193 8.51038 2.46425 
56 1 16.0471 8.50749 1.22775 
57 2 8.77846 1.00772 1.22781 
19 1 10.1161 9.78135 2.46426 
24 1 8.25279 13.6385 2.46426 
27 1 8.83967 12.3203 2.46426 
35 1 9.7741 10.3709 1.22776 