ITEM: TIMESTEP
0
ITEM: NUMBER OF ATOMS
49
ITEM: BOX BOUNDS pp pp pp
0.0000000000000000e+00 1.1000000000000000e+01
0.0000000000000000e+00 1.1002000000000001e+01
0.0000000000000000e+00 1.1000000000000000e+01
ITEM: ATOMS id type x y z 
10 1 4.603 4.603 4.603 
11 1 3.085 3.085 3.085 
12 1 3.796 3.796 3.796 
46 1 0.726 0.725 0.725 
47 1 2.26 2.259 2.26 
48 1 1.551 1.55 1.55 
49 2 1.973 1.69 3.145 
19 1 4.546 4.545 6.226 
20 1 3.013 3.013 7.764 
21 1 3.721 3.721 7.053 
31 1 0.668 0.667 10.103 
32 1 2.187 2.187 8.589 
33 1 1.476 1.475 9.298 
16 1 4.546 6.225 4.546 
17 1 3.013 7.765 3.013 
18 1 3.721 7.053 3.722 
25 1 0.668 10.103 0.668 
26 1 2.188 8.589 2.188 
27 1 1.476 9.298 1.476 
4 1 4.608 6.169 6.169 
5 1 3.086 7.684 7.684 
6 1 3.799 6.974 6.974 
37 1 0.729 10.046 10.046 
38 1 2.259 8.509 8.508 
39 1 1.552 9.219 9.219 
13 1 6.225 4.546 4.546 
14 1 7.764 3.013 3.013 
15 1 7.053 3.721 3.722 
28 1 10.102 0.667 0.668 
29 1 8.589 2.187 2.188 
30 1 9.298 1.475 1.476 
1 1 6.168 4.608 6.169 
2 1 7.684 3.086 7.684 
3 1 6.974 3.799 6.974 
40 1 10.045 0.728 10.046 
41 1 8.508 2.259 8.508 
42 1 9.218 1.551 9.218 
7 1 6.169 6.169 4.608 
8 1 7.684 7.684 3.086 
9 1 6.974 6.974 3.799 
43 1 10.046 10.047 0.729 
44 1 8.508 8.509 2.259 
45 1 9.219 9.219 1.552 
22 1 6.229 6.229 6.229 
23 1 7.764 7.765 7.765 
24 1 7.055 7.056 7.055 
34 1 10.108 10.108 10.107 
35 1 8.59 8.59 8.59 
36 1 9.301 9.301 9.3 
ITEM: TIMESTEP
10
ITEM: NUMBER OF ATOMS
49
ITEM: BOX BOUNDS pp pp pp
0.0000000000000000e+00 1.1000000000000000e+01
0.0000000000000000e+00 1.1002000000000001e+01
0.0000000000000000e+00 1.1000000000000000e+01
ITEM: ATOMS id type x y z 
10 1 4.60417 4.6037 4.60819 
11 1 3.10709 3.11452 3.07721 
12 1 3.8108 3.8122 3.8003 
46 1 0.742251 0.741603 0.732059 
47 1 2.26984 2.26559 2.28325 
48 1 1.54076 1.55737 1.46751 
49 2 1.97781 1.6705 3.25134 
19 1 4.53683 4.53631 6.23929 
20 1 3.00188 3.00196 7.77418 
21 1 3.70879 3.70863 7.06716 
31 1 0.671569 0.670825 10.0592 
32 1 2.19375 2.19282 8.58705 
33 1 1.47923 1.48003 9.2849 
16 1 4.53707 6.23875 4.53741 
17 1 3.00282 7.77464 3.00318 
18 1 3.7093 7.06585 3.70958 
25 1 0.670923 10.0608 0.673198 
26 1 2.1937 8.58723 2.1942 
27 1 1.48063 9.28547 1.47984 
4 1 4.60159 6.17659 6.17603 
5 1 3.08224 7.68759 7.68778 
6 1 3.792 6.98131 6.98072 
37 1 0.737799 10.0362 10.0363 
38 1 2.26874 8.49944 8.49874 
39 1 1.56384 9.20687 9.2065 
13 1 6.2387 4.53725 4.5373 
14 1 7.77408 3.00253 3.00289 
15 1 7.06584 3.70909 3.70954 
28 1 10.06 0.670375 0.672288 
29 1 8.58753 2.19344 2.19431 
30 1 9.28424 1.47883 1.48 
1 1 6.17609 4.6013 6.17603 
2 1 7.68759 3.08217 7.68767 
3 1 6.98122 3.7922 6.98099 
40 1 10.0352 0.736565 10.036 
41 1 8.49878 2.26815 8.49871 
42 1 9.20596 1.56323 9.20612 
7 1 6.17597 6.17586 4.60156 
8 1 7.68772 7.68776 3.08231 
9 1 6.98095 6.98102 3.79182 
43 1 10.0361 10.0371 0.737991 
44 1 8.49861 8.49934 2.26868 
45 1 9.20642 9.20675 1.5642 
22 1 6.23795 6.2383 6.23777 
23 1 7.77334 7.77442 7.77401 
24 1 7.06679 7.06745 7.06733 
34 1 10.1002 10.1005 10.099 
35 1 8.58618 8.58618 8.58624 
36 1 9.29414 9.29435 9.29308 
ITEM: TIMESTEP
20
ITEM: NUMBER OF ATOMS
49
ITEM: BOX BOUNDS pp pp pp
0.0000000000000000e+00 1.1000000000000000e+01
0.0000000000000000e+00 1.1002000000000001e+01
0.0000000000000000e+00 1.1000000000000000e+01
ITEM: ATOMS id type x y z 
10 1 4.6235 4.62232 4.62846 
11 1 3.13427 3.15963 3.03691 
12 1 3.82872 3.83556 3.78579 
46 1 0.72468 0.72998 0.68277 
47 1 2.23619 2.20327 2.3723 
48 1 1.55127 1.5833 1.41331 
49 2 1.98549 1.65941 3.3362 
19 1 4.5413 4.54117 6.25564 
20 1 3.00155 3.00138 7.77352 
21 1 3.71159 3.71128 7.0732 
31 1 0.660151 0.659624 10.0353 
32 1 2.19732 2.19778 8.58906 
33 1 1.47511 1.47442 9.26757 
16 1 4.54191 6.25378 4.54293 
17 1 3.00238 7.7754 3.00264 
18 1 3.71007 7.07085 3.71061 
25 1 0.661524 10.048 0.663977 
26 1 2.19663 8.58865 2.19513 
27 1 1.47532 9.27493 1.47809 
4 1 4.6042 6.18159 6.17929 
5 1 3.0843 7.68496 7.68504 
6 1 3.79606 6.97996 6.97822 
37 1 0.740007 10.0249 10.0319 
38 1 2.27429 8.49387 8.49223 
39 1 1.56925 9.19977 9.20237 
13 1 6.25391 4.5418 4.54285 
14 1 7.7749 3.00215 3.00252 
15 1 7.07085 3.71002 3.71049 
28 1 10.0461 0.659593 0.663263 
29 1 8.58947 2.19495 2.19729 
30 1 9.27189 1.47589 1.47464 
1 1 6.18031 4.60452 6.17963 
2 1 7.68392 3.0847 7.68584 
3 1 6.98134 3.79594 6.97625 
40 1 10.0226 0.738485 10.0315 
41 1 8.49307 2.27461 8.49215 
42 1 9.1985 1.5679 9.20143 
7 1 6.17935 6.17916 4.60338 
8 1 7.68483 7.68499 3.08466 
9 1 6.9784 6.97822 3.79548 
43 1 10.0325 10.0335 0.743042 
44 1 8.49304 8.49403 2.2735 
45 1 9.20153 9.20156 1.57003 
22 1 6.24215 6.24266 6.24174 
23 1 7.77549 7.77666 7.77533 
24 1 7.06877 7.06888 7.07 
34 1 10.0965 10.0961 10.0962 
35 1 8.58458 8.58467 8.58567 
36 1 9.29395 9.29427 9.29166 
ITEM: TIMESTEP
30
ITEM: NUMBER OF ATOMS
49
ITEM: BOX BOUNDS pp pp pp
0.0000000000000000e+00 1.1000000000000000e+01
0.0000000000000000e+00 1.1002000000000001e+01
0.0000000000000000e+00 1.1000000000000000e+01
ITEM: ATOMS id type x y z 
10 1 4.61627 4.61381 4.62696 
11 1 3.13887 3.1647 3.00881 
12 1 3.82661 3.85852 3.74007 
46 1 0.731292 0.740787 0.6683 
47 1 2.21161 2.16187 2.42078 
48 1 1.56228 1.59707 1.41132 
49 2 1.98445 1.64379 3.39523 
19 1 4.54364 4.54395 6.24989 
20 1 3.00281 3.00257 7.77716 
21 1 3.71135 3.71134 7.07268 
31 1 0.655958 0.656569 10.0327 
32 1 2.19383 2.1937 8.58792 
33 1 1.47146 1.47176 9.26593 
16 1 4.54188 6.24381 4.54243 
17 1 2.99959 7.7717 2.9995 
18 1 3.71569 7.08396 3.71642 
25 1 0.661898 10.0635 0.664629 
26 1 2.18995 8.58899 2.19002 
27 1 1.47374 9.28123 1.47479 
4 1 4.60831 6.18307 6.17854 
5 1 3.08555 7.6829 7.683 
6 1 3.80021 6.98036 6.9768 
37 1 0.736313 10.0234 10.0363 
38 1 2.28244 8.49573 8.49448 
39 1 1.55647 9.19025 9.1947 
13 1 6.24574 4.54027 4.53989 
14 1 7.77309 2.99781 2.9978 
15 1 7.08572 3.71336 3.71456 
28 1 10.0579 0.661274 0.66324 
29 1 8.58942 2.1893 2.19068 
30 1 9.27849 1.47174 1.47307 
1 1 6.18714 4.60215 6.1707 
2 1 7.68787 3.07775 7.66839 
3 1 6.9698 3.81631 7.00406 
40 1 10.0184 0.72912 10.0295 
41 1 8.4917 2.27716 8.49076 
42 1 9.19439 1.5658 9.19913 
7 1 6.17773 6.18238 4.60771 
8 1 7.68346 7.68296 3.08459 
9 1 6.97803 6.97954 3.79915 
43 1 10.0362 10.0348 0.740364 
44 1 8.4928 8.49372 2.27353 
45 1 9.20141 9.20121 1.56967 
22 1 6.24545 6.24617 6.24461 
23 1 7.77792 7.7786 7.77848 
24 1 7.0711 7.07189 7.07088 
34 1 10.0933 10.0927 10.0953 
35 1 8.58859 8.5889 8.58871 
36 1 9.29685 9.29675 9.29688 
ITEM: TIMESTEP
40
ITEM: NUMBER OF ATOMS
49
ITEM: BOX BOUNDS pp pp pp
0.0000000000000000e+00 1.1000000000000000e+01
0.0000000000000000e+00 1.1002000000000001e+01
0.0000000000000000e+00 1.1000000000000000e+01
ITEM: ATOMS id type x y z 
10 1 4.6181 4.61464 4.60811 
11 1 3.13902 3.17083 2.98551 
12 1 3.81845 3.84973 3.7387 
46 1 0.735605 0.747405 0.662215 
47 1 2.20362 2.14539 2.4478 
48 1 1.5665 1.60147 1.41419 
49 2 1.98824 1.63881 3.43562 
19 1 4.54278 4.54283 6.2414 
20 1 3.00566 3.00511 7.77798 
21 1 3.71237 3.71259 7.06985 
31 1 0.654474 0.654638 10.0301 
32 1 2.19355 2.19364 8.58415 
33 1 1.47193 1.47205 9.26302 
16 1 4.54184 6.24768 4.54246 
17 1 3.00222 7.77979 3.00243 
18 1 3.70933 7.07477 3.70943 
25 1 0.665439 10.0718 0.665664 
26 1 2.18748 8.58819 2.18914 
27 1 1.4746 9.28351 1.47321 
4 1 4.60691 6.17946 6.17719 
5 1 3.08685 7.68453 7.68226 
6 1 3.8007 6.979 6.9784 
37 1 0.731968 10.0201 10.0343 
38 1 2.27563 8.4916 8.49099 
39 1 1.567 9.19436 9.20076 
13 1 6.24632 4.54226 4.54157 
14 1 7.77985 3.00187 3.00255 
15 1 7.07422 3.70923 3.70927 
28 1 10.0647 0.663133 0.66273 
29 1 8.58712 2.18739 2.18934 
30 1 9.28068 1.47311 1.47347 
1 1 6.17881 4.60917 6.18028 
2 1 7.68261 3.08903 7.68235 
3 1 6.97692 3.80263 6.9769 
40 1 10.0178 0.730674 10.0305 
41 1 8.49238 2.27509 8.48986 
42 1 9.19276 1.56392 9.19895 
7 1 6.17856 6.17848 4.60506 
8 1 7.6835 7.68397 3.08536 
9 1 6.97837 6.97854 3.79736 
43 1 10.0396 10.038 0.746251 
44 1 8.49236 8.49291 2.27307 
45 1 9.20156 9.20149 1.57146 
22 1 6.24714 6.24612 6.24517 
23 1 7.77945 7.77782 7.77937 
24 1 7.06936 7.07429 7.06996 
34 1 10.0936 10.0904 10.1011 
35 1 8.58763 8.5872 8.59242 
36 1 9.29947 9.3003 9.29176 
ITEM: TIMESTEP
50
ITEM: NUMBER OF ATOMS
49
ITEM: BOX BOUNDS pp pp pp
0.0000000000000000e+00 1.1000000000000000e+01
0.0000000000000000e+00 1.1002000000000001e+01
0.0000000000000000e+00 1.1000000000000000e+01
ITEM: ATOMS id type x y z 
10 1 4.61588 4.61688 4.60445 
11 1 3.1334 3.17151 2.97979 
12 1 3.82097 3.84338 3.73119 
46 1 0.739973 0.752561 0.662948 
47 1 2.20135 2.13973 2.46003 
48 1 1.56671 1.60099 1.41631 
49 2 1.99077 1.63817 3.45146 
19 1 4.5398 4.54017 6.23852 
20 1 3.00746 3.00715 7.77693 
21 1 3.71303 3.71291 7.06896 
31 1 0.654172 0.655006 10.0288 
32 1 2.19424 2.19434 8.58254 
33 1 1.47201 1.47199 9.26065 
16 1 4.54035 6.24672 4.53974 
17 1 3.00139 7.78044 3.00151 
18 1 3.70972 7.07526 3.71013 
25 1 0.665285 10.0755 0.665403 
26 1 2.18776 8.58764 2.1885 
27 1 1.47442 9.28475 1.4748 
4 1 4.60787 6.1787 6.17707 
5 1 3.0878 7.68424 7.68251 
6 1 3.80029 6.97874 6.97695 
37 1 0.734742 10.0182 10.0336 
38 1 2.27524 8.49219 8.49184 
39 1 1.56559 9.19406 9.201 
13 1 6.24507 4.5407 4.53928 
14 1 7.77964 3.00215 3.00272 
15 1 7.07403 3.70983 3.71032 
28 1 10.0681 0.663189 0.662509 
29 1 8.5868 2.18802 2.1894 
30 1 9.28021 1.47285 1.47418 
1 1 6.17783 4.60994 6.17733 
2 1 7.6834 3.08884 7.6827 
3 1 6.97746 3.80161 6.97792 
40 1 10.0155 0.731321 10.0298 
41 1 8.49129 2.27524 8.48956 
42 1 9.19247 1.56448 9.19831 
7 1 6.17792 6.17772 4.60569 
8 1 7.68301 7.68445 3.08518 
9 1 6.97917 6.97748 3.79761 
43 1 10.0402 10.0386 0.748765 
44 1 8.49346 8.49411 2.27091 
45 1 9.20416 9.2038 1.57149 
22 1 6.24537 6.24699 6.24361 
23 1 7.77853 7.77975 7.7794 
24 1 7.07229 7.07223 7.07153 
34 1 10.0965 10.095 10.1008 
35 1 8.58837 8.58887 8.58565 
36 1 9.29404 9.29262 9.30066 
ITEM: TIMESTEP
60
ITEM: NUMBER OF ATOMS
49
ITEM: BOX BOUNDS pp pp pp
0.0000000000000000e+00 1.1000000000000000e+01
0.0000000000000000e+00 1.1002000000000001e+01
0.0000000000000000e+00 1.1000000000000000e+01
ITEM: ATOMS id type x y z 
10 1 4.6145 4.61657 4.60091 
11 1 3.13242 3.17137 2.97594 
12 1 3.81985 3.84233 3.72826 
46 1 0.741668 0.754843 0.661488 
47 1 2.19903 2.13528 2.46739 
48 1 1.56735 1.60103 1.41903 
49 2 1.99244 1.6377 3.46206 
19 1 4.53911 4.53959 6.23584 
20 1 3.00812 3.00773 7.77738 
21 1 3.71327 3.71329 7.06737 
31 1 0.653737 0.654845 10.0281 
32 1 2.19439 2.19443 8.58141 
33 1 1.47214 1.47227 9.25952 
16 1 4.5399 6.24598 4.53892 
17 1 3.00151 7.78082 3.00184 
18 1 3.70925 7.07518 3.70934 
25 1 0.666329 10.0778 0.665569 
26 1 2.1873 8.58763 2.18818 
27 1 1.47469 9.28584 1.47479 
4 1 4.60784 6.17795 6.17641 
5 1 3.08806 7.6842 7.68237 
6 1 3.80043 6.97857 6.97681 
37 1 0.734695 10.0184 10.0341 
38 1 2.27478 8.49179 8.49169 
39 1 1.56609 9.19426 9.20147 
13 1 6.24421 4.54005 4.53859 
14 1 7.78031 3.002 3.003 
15 1 7.07362 3.7096 3.70947 
28 1 10.0696 0.664036 0.662551 
29 1 8.58633 2.18742 2.18932 
30 1 9.28129 1.47373 1.47399 
1 1 6.17708 4.60973 6.17681 
2 1 7.68319 3.08927 7.68266 
3 1 6.97742 3.80166 6.97734 
40 1 10.0155 0.731041 10.03 
41 1 8.49095 2.275 8.48957 
42 1 9.19244 1.56457 9.19842 
7 1 6.17807 6.17744 4.60592 
8 1 7.68367 7.68426 3.08513 
9 1 6.97841 6.97825 3.79706 
43 1 10.0415 10.0399 0.749761 
44 1 8.49353 8.49414 2.27064 
45 1 9.20445 9.20415 1.57205 
22 1 6.24522 6.24632 6.24326 
23 1 7.77873 7.77926 7.77926 
24 1 7.0716 7.07286 7.07117 
34 1 10.0961 10.0945 10.1029 
35 1 8.58808 8.58824 8.58706 
36 1 9.29486 9.29394 9.29896 
ITEM: TIMESTEP
62
ITEM: NUMBER OF ATOMS
49
ITEM: BOX BOUNDS pp pp pp
0.0000000000000000e+00 1.1000000000000000e+01
0.0000000000000000e+00 1.1002000000000001e+01
0.0000000000000000e+00 1.1000000000000000e+01
ITEM: ATOMS id type x y z 
10 1 4.6145 4.61657 4.60091 
11 1 3.13242 3.17137 2.97594 
12 1 3.81985 3.84233 3.72826 
46 1 0.741668 0.754844 0.661488 
47 1 2.19903 2.13528 2.46739 
48 1 1.56735 1.60103 1.41904 
49 2 1.99244 1.6377 3.46206 
19 1 4.53911 4.53959 6.23584 
20 1 3.00812 3.00773 7.77738 
21 1 3.71327 3.71329 7.06737 
31 1 0.653737 0.654845 10.0281 
32 1 2.19439 2.19443 8.58141 
33 1 1.47214 1.47227 9.25952 
16 1 4.5399 6.24598 4.53892 
17 1 3.00151 7.78082 3.00184 
18 1 3.70925 7.07518 3.70934 
25 1 0.66633 10.0778 0.665569 
26 1 2.1873 8.58763 2.18818 
27 1 1.47469 9.28584 1.47479 
4 1 4.60784 6.17795 6.17641 
5 1 3.08806 7.6842 7.68237 
6 1 3.80043 6.97857 6.97681 
37 1 0.734695 10.0184 10.0341 
38 1 2.27478 8.49179 8.49169 
39 1 1.56609 9.19426 9.20147 
13 1 6.24421 4.54005 4.53859 
14 1 7.78031 3.002 3.003 
15 1 7.07362 3.7096 3.70947 
28 1 10.0696 0.664037 0.662551 
29 1 8.58633 2.18742 2.18932 
30 1 9.28129 1.47373 1.47399 
1 1 6.17708 4.60973 6.17681 
2 1 7.68319 3.08927 7.68266 
3 1 6.97742 3.80166 6.97734 
40 1 10.0155 0.731041 10.03 
41 1 8.49095 2.275 8.48957 
42 1 9.19244 1.56456 9.19842 
7 1 6.17807 6.17744 4.60592 
8 1 7.68367 7.68425 3.08513 
9 1 6.97841 6.97825 3.79706 
43 1 10.0415 10.0399 0.749761 
44 1 8.49353 8.49414 2.27064 
45 1 9.20445 9.20415 1.57205 
22 1 6.24522 6.24632 6.24326 
23 1 7.77873 7.77926 7.77926 
24 1 7.0716 7.07286 7.07117 
34 1 10.0961 10.0945 10.1029 
35 1 8.58808 8.58824 8.58706 
36 1 9.29486 9.29394 9.29896 
ITEM: TIMESTEP
63
ITEM: NUMBER OF ATOMS
49
ITEM: BOX BOUNDS pp pp pp
0.0000000000000000e+00 1.1000000000000000e+01
0.0000000000000000e+00 1.1002000000000001e+01
0.0000000000000000e+00 1.1000000000000000e+01
ITEM: ATOMS id type x y z 
10 1 4.6145 4.61657 4.60091 
11 1 3.13242 3.17137 2.97594 
12 1 3.81985 3.84233 3.72826 
46 1 0.741668 0.754844 0.661488 
47 1 2.19903 2.13528 2.46739 
48 1 1.56735 1.60103 1.41904 
49 2 1.99244 1.6377 3.46206 
19 1 4.53911 4.53959 6.23584 
20 1 3.00812 3.00773 7.77738 
21 1 3.71327 3.71329 7.06737 
31 1 0.653737 0.654845 10.0281 
32 1 2.19439 2.19443 8.58141 
33 1 1.47214 1.47227 9.25952 
16 1 4.5399 6.24598 4.53892 
17 1 3.00151 7.78082 3.00184 
18 1 3.70925 7.07518 3.70934 
25 1 0.66633 10.0778 0.665569 
26 1 2.1873 8.58763 2.18818 
27 1 1.47469 9.28584 1.47479 
4 1 4.60784 6.17795 6.17641 
5 1 3.08806 7.6842 7.68237 
6 1 3.80043 6.97857 6.97681 
37 1 0.734695 10.0184 10.0341 
38 1 2.27478 8.49179 8.49169 
39 1 1.56609 9.19426 9.20147 
13 1 6.24421 4.54005 4.53859 
14 1 7.78031 3.002 3.003 
15 1 7.07362 3.7096 3.70947 
28 1 10.0696 0.664037 0.662551 
29 1 8.58633 2.18742 2.18932 
30 1 9.28129 1.47373 1.47399 
1 1 6.17708 4.60973 6.17681 
2 1 7.68319 3.08927 7.68266 
3 1 6.97742 3.80166 6.97734 
40 1 10.0155 0.731041 10.03 
41 1 8.49095 2.275 8.48957 
42 1 9.19244 1.56456 9.19842 
7 1 6.17807 6.17744 4.60592 
8 1 7.68367 7.68425 3.08513 
9 1 6.97841 6.97825 3.79706 
43 1 10.0415 10.0399 0.749761 
44 1 8.49353 8.49414 2.27064 
45 1 9.20445 9.20415 1.57205 
22 1 6.24522 6.24632 6.24326 
23 1 7.77873 7.77926 7.77926 
24 1 7.0716 7.07286 7.07117 
34 1 10.0961 10.0945 10.1029 
35 1 8.58808 8.58824 8.58706 
36 1 9.29486 9.29394 9.29896 
ITEM: TIMESTEP
70
ITEM: NUMBER OF ATOMS
49
ITEM: BOX BOUNDS pp pp pp
-3.3364340909197480e-03 1.1003336434090921e+01
-3.2922969036737171e-03 1.1005292296903676e+01
-3.8500000000000001e-03 1.1003850000000003e+01
ITEM: ATOMS id type x y z 
10 1 4.61398 4.61607 4.6003 
11 1 3.13098 3.16999 2.97417 
12 1 3.81883 3.84132 3.72701 
46 1 0.738771 0.751996 0.658077 
47 1 2.19702 2.13325 2.46529 
48 1 1.56496 1.59868 1.41618 
49 2 1.99032 1.63539 3.46067 
19 1 4.53855 4.53904 6.23632 
20 1 3.00661 3.00625 7.77897 
21 1 3.71221 3.71225 7.06843 
31 1 0.650773 0.651906 10.0313 
32 1 2.19238 2.19243 8.58356 
33 1 1.4697 1.46989 9.26216 
16 1 4.53934 6.24641 4.53826 
17 1 3 7.78217 3.00011 
18 1 3.70818 7.0761 3.70808 
25 1 0.66338 10.0806 0.662157 
26 1 2.18528 8.58949 2.18586 
27 1 1.47225 9.28809 1.47198 
4 1 4.60733 6.17833 6.17686 
5 1 3.08662 7.6855 7.6839 
6 1 3.79936 6.97945 6.97785 
37 1 0.731783 10.0211 10.0373 
38 1 2.27281 8.49358 8.4938 
39 1 1.56369 9.19649 9.20407 
13 1 6.24464 4.5395 4.53794 
14 1 7.78168 3.00052 3.00126 
15 1 7.07456 3.70854 3.70823 
28 1 10.0724 0.661133 0.659129 
29 1 8.58821 2.18545 2.18698 
30 1 9.28357 1.47131 1.47119 
1 1 6.17745 4.60922 6.17727 
2 1 7.6845 3.08784 7.68419 
3 1 6.97834 3.80063 6.97835 
40 1 10.0182 0.728167 10.0332 
41 1 8.49277 2.27306 8.49167 
42 1 9.1947 1.56218 9.20102 
7 1 6.17846 6.17781 4.60531 
8 1 7.68498 7.68554 3.08344 
9 1 6.97932 6.97916 3.79588 
43 1 10.0443 10.0426 0.746417 
44 1 8.49535 8.49594 2.26837 
45 1 9.20672 9.20638 1.56929 
22 1 6.24565 6.24675 6.24376 
23 1 7.78009 7.78062 7.78084 
24 1 7.07255 7.07377 7.07226 
34 1 10.0989 10.0972 10.1062 
35 1 8.58995 8.59009 8.58925 
36 1 9.29716 9.29622 9.30159 
ITEM: TIMESTEP
80
ITEM: NUMBER OF ATOMS
49
ITEM: BOX BOUNDS pp pp pp
-3.3608277584683145e-03 1.1003360827758469e+01
-2.8007660403433017e-03 1.1004800766040345e+01
-9.3500000000000007e-03 1.1009350000000008e+01
ITEM: ATOMS id type x y z 
10 1 4.61436 4.61661 4.59973 
11 1 3.13106 3.17036 2.97169 
12 1 3.81868 3.84122 3.72502 
46 1 0.738527 0.752235 0.652824 
47 1 2.19694 2.13341 2.46252 
48 1 1.56474 1.59878 1.41206 
49 2 1.99037 1.63574 3.45899 
19 1 4.53893 4.53952 6.23655 
20 1 3.00681 3.00668 7.78106 
21 1 3.71252 3.71272 7.06965 
31 1 0.650275 0.651774 10.036 
32 1 2.19227 2.1925 8.5867 
33 1 1.46976 1.47056 9.26579 
16 1 4.53969 6.24595 4.53769 
17 1 3.00023 7.7818 2.99789 
18 1 3.70835 7.07567 3.7064 
25 1 0.662925 10.0804 0.656805 
26 1 2.18514 8.58938 2.18243 
27 1 1.47235 9.28758 1.46805 
4 1 4.60785 6.17779 6.17709 
5 1 3.08685 7.68521 7.68596 
6 1 3.79904 6.97938 6.97944 
37 1 0.731376 10.0211 10.0422 
38 1 2.27254 8.49354 8.49705 
39 1 1.56343 9.19641 9.208 
13 1 6.2442 4.53995 4.53733 
14 1 7.78148 3.00097 2.999 
15 1 7.07433 3.70892 3.70666 
28 1 10.0727 0.66114 0.653772 
29 1 8.58839 2.1856 2.18355 
30 1 9.2834 1.4718 1.46726 
1 1 6.17689 4.60975 6.17751 
2 1 7.68433 3.08823 7.68628 
3 1 6.97856 3.8006 6.97987 
40 1 10.0186 0.728211 10.0381 
41 1 8.493 2.27311 8.49491 
42 1 9.19499 1.56225 9.20497 
7 1 6.17798 6.17722 4.60477 
8 1 7.68483 7.68513 3.08104 
9 1 6.97955 6.97936 3.79423 
43 1 10.0446 10.0426 0.741304 
44 1 8.49555 8.49589 2.26493 
45 1 9.20704 9.20628 1.56514 
22 1 6.24522 6.24635 6.24411 
23 1 7.77981 7.78024 7.78287 
24 1 7.07241 7.07328 7.0736 
34 1 10.0993 10.0972 10.1113 
35 1 8.59007 8.58988 8.59265 
36 1 9.29715 9.2959 9.30499 
ITEM: TIMESTEP
90
ITEM: NUMBER OF ATOMS
49
ITEM: BOX BOUNDS pp pp pp
-3.1289365913105172e-03 1.1003128936591310e+01
-1.9722891532537989e-03 1.1003972289153255e+01
-1.4850000000000002e-02 1.1014850000000013e+01
ITEM: ATOMS id type x y z 
10 1 4.61482 4.61721 4.59914 
11 1 3.13127 3.17086 2.96923 
12 1 3.81854 3.84123 3.72301 
46 1 0.738471 0.752743 0.647482 
47 1 2.19699 2.13375 2.45979 
48 1 1.56466 1.59906 1.40796 
49 2 1.99062 1.63634 3.45738 
19 1 4.53939 4.54009 6.23671 
20 1 3.00728 3.00743 7.783 
21 1 3.7128 3.71318 7.07097 
31 1 0.649942 0.651964 10.0409 
32 1 2.1923 2.19287 8.58987 
33 1 1.47005 1.47134 9.26933 
16 1 4.54014 6.2454 4.53716 
17 1 3.00069 7.78118 2.9958 
18 1 3.70854 7.07518 3.70463 
25 1 0.662682 10.0801 0.651396 
26 1 2.18514 8.58908 2.17899 
27 1 1.47266 9.28684 1.46414 
4 1 4.60838 6.17714 6.17723 
5 1 3.08711 7.68476 7.688 
6 1 3.79892 6.9793 6.98108 
37 1 0.731155 10.0209 10.0472 
38 1 2.27231 8.49345 8.50042 
39 1 1.56342 9.196 9.21186 
13 1 6.24367 4.54049 4.53676 
14 1 7.78105 3.00169 2.99685 
15 1 7.0741 3.70933 3.70501 
28 1 10.0728 0.661418 0.648368 
29 1 8.58841 2.18594 2.18012 
30 1 9.28307 1.47258 1.46332 
1 1 6.17632 4.61037 6.17764 
2 1 7.6841 3.08876 7.6883 
3 1 6.97862 3.80069 6.98151 
40 1 10.0189 0.728507 10.043 
41 1 8.49323 2.27323 8.49827 
42 1 9.195 1.56265 9.20886 
7 1 6.17746 6.17663 4.60438 
8 1 7.6846 7.68467 3.07876 
9 1 6.97966 6.97929 3.79233 
43 1 10.0449 10.0424 0.736156 
44 1 8.49576 8.49577 2.26137 
45 1 9.20704 9.20589 1.56109 
22 1 6.24474 6.24582 6.24441 
23 1 7.77933 7.77955 7.78478 
24 1 7.07222 7.07284 7.07499 
34 1 10.0996 10.0969 10.1166 
35 1 8.59003 8.58947 8.59608 
36 1 9.29697 9.29539 9.30833 
ITEM: TIMESTEP
100
ITEM: NUMBER OF ATOMS
49
ITEM: BOX BOUNDS pp pp pp
-3.0216358001062334e-03 1.1003021635800105e+01
-1.2190580468629197e-03 1.1003219058046865e+01
-2.0349999999999990e-02 1.1020350000000018e+01
ITEM: ATOMS id type x y z 
10 1 4.61527 4.61781 4.59852 
11 1 3.13144 3.17132 2.96677 
12 1 3.81833 3.84121 3.72098 
46 1 0.738282 0.75317 0.642059 
47 1 2.19694 2.13399 2.4571 
48 1 1.56445 1.59923 1.40389 
49 2 1.99081 1.63691 3.45583 
19 1 4.53987 4.54067 6.2368 
20 1 3.0078 3.00823 7.78485 
21 1 3.71295 3.71358 7.07234 
31 1 0.649463 0.652097 10.0458 
32 1 2.19224 2.19322 8.59303 
33 1 1.4703 1.47201 9.27283 
16 1 4.54061 6.24482 4.53668 
17 1 3.00116 7.78053 2.99377 
18 1 3.70864 7.07474 3.70284 
25 1 0.66231 10.0798 0.645957 
26 1 2.18505 8.58884 2.17555 
27 1 1.47291 9.28614 1.46021 
4 1 4.60889 6.17645 6.17734 
5 1 3.08728 7.68431 7.69004 
6 1 3.79881 6.9793 6.98274 
37 1 0.730781 10.0208 10.0522 
38 1 2.27191 8.49346 8.50387 
39 1 1.56338 9.19562 9.21568 
13 1 6.24312 4.54106 4.53624 
14 1 7.7806 3.00246 2.99478 
15 1 7.07393 3.70967 3.70331 
28 1 10.0731 0.661656 0.642905 
29 1 8.58853 2.18626 2.17666 
30 1 9.2828 1.47325 1.45944 
1 1 6.17572 4.61099 6.17775 
2 1 7.68391 3.08925 7.69035 
3 1 6.97876 3.80075 6.98311 
40 1 10.0193 0.728689 10.0481 
41 1 8.49359 2.2732 8.50172 
42 1 9.19507 1.56308 9.2127 
7 1 6.17693 6.176 4.60401 
8 1 7.68442 7.68422 3.07646 
9 1 6.97982 6.9793 3.79049 
43 1 10.0453 10.0422 0.730973 
44 1 8.49612 8.49576 2.25774 
45 1 9.20707 9.2055 1.55708 
22 1 6.24426 6.24525 6.24465 
23 1 7.77885 7.77881 7.78661 
24 1 7.07205 7.07248 7.07644 
34 1 10.1001 10.0968 10.1217 
35 1 8.59012 8.58919 8.59939 
36 1 9.29678 9.29476 9.31193 
ITEM: TIMESTEP
110
ITEM: NUMBER OF ATOMS
49
ITEM: BOX BOUNDS pp pp pp
-2.6950795812198643e-03 1.1002695079581217e+01
-1.4866794605080519e-04 1.1002148667946051e+01
-2.5785047118783783e-02 1.1025785047118806e+01
ITEM: ATOMS id type x y z 
10 1 4.61581 4.61852 4.5979 
11 1 3.13172 3.17191 2.96436 
12 1 3.81815 3.84125 3.71892 
46 1 0.738226 0.753833 0.636535 
47 1 2.19696 2.13435 2.45451 
48 1 1.56433 1.59952 1.39993 
49 2 1.99119 1.63773 3.45441 
19 1 4.54044 4.54138 6.23671 
20 1 3.00852 3.00929 7.78655 
21 1 3.71322 3.71406 7.0737 
31 1 0.649121 0.652433 10.0507 
32 1 2.1923 2.19373 8.59614 
33 1 1.47072 1.47298 9.27624 
16 1 4.54117 6.24403 4.53625 
17 1 3.00181 7.77959 2.99181 
18 1 3.70885 7.07436 3.70117 
25 1 0.662063 10.0794 0.640439 
26 1 2.18507 8.58841 2.1721 
27 1 1.47334 9.28527 1.45642 
4 1 4.60955 6.17567 6.17734 
5 1 3.08762 7.68376 7.69204 
6 1 3.79864 6.97916 6.98439 
37 1 0.730515 10.0205 10.0573 
38 1 2.27155 8.49341 8.50736 
39 1 1.56351 9.19498 9.2195 
13 1 6.24242 4.54176 4.53584 
14 1 7.77998 3.00346 2.99286 
15 1 7.07369 3.71013 3.70161 
28 1 10.0733 0.662061 0.637418 
29 1 8.5885 2.1867 2.17324 
30 1 9.28241 1.47428 1.45559 
1 1 6.17503 4.61172 6.17771 
2 1 7.68364 3.08991 7.69231 
3 1 6.9788 3.80088 6.98479 
40 1 10.0196 0.729086 10.0531 
41 1 8.49394 2.27328 8.50523 
42 1 9.19494 1.56369 9.21648 
7 1 6.17631 6.1753 4.60378 
8 1 7.68415 7.68367 3.07425 
9 1 6.97993 6.97918 3.78853 
43 1 10.0456 10.042 0.725753 
44 1 8.49645 8.49571 2.25407 
45 1 9.20699 9.20486 1.55309 
22 1 6.24365 6.24454 6.24479 
23 1 7.77817 7.77782 7.78833 
24 1 7.07184 7.07206 7.07782 
34 1 10.1004 10.0965 10.1268 
35 1 8.59012 8.58877 8.60264 
36 1 9.29638 9.29384 9.31554 
ITEM: TIMESTEP
120
ITEM: NUMBER OF ATOMS
49
ITEM: BOX BOUNDS pp pp pp
-3.2291148573497571e-03 1.1003229114857346e+01
-1.6278562312328163e-04 1.1002162785623124e+01
-3.0029749569258364e-02 1.1030029749569284e+01
ITEM: ATOMS id type x y z 
10 1 4.61605 4.61889 4.59737 
11 1 3.13157 3.17199 2.96249 
12 1 3.81778 3.84104 3.71731 
46 1 0.737508 0.753632 0.632206 
47 1 2.19649 2.13408 2.45249 
48 1 1.56367 1.59913 1.39689 
49 2 1.991 1.63779 3.45332 
19 1 4.54077 4.5418 6.23667 
20 1 3.00874 3.00975 7.78793 
21 1 3.7131 3.71413 7.07468 
31 1 0.648203 0.651962 10.0546 
32 1 2.19188 2.19359 8.59851 
33 1 1.47049 1.47319 9.279 
16 1 4.54148 6.24356 4.53592 
17 1 3.00196 7.77925 2.99027 
18 1 3.70871 7.07425 3.69983 
25 1 0.661212 10.0798 0.636211 
26 1 2.18461 8.5886 2.16946 
27 1 1.47309 9.28506 1.45334 
4 1 4.60987 6.17514 6.17738 
5 1 3.08749 7.68361 7.69364 
6 1 3.79835 6.9794 6.98562 
37 1 0.729631 10.0209 10.0613 
38 1 2.27081 8.4938 8.51009 
39 1 1.56307 9.19508 9.22244 
13 1 6.24199 4.54216 4.53549 
14 1 7.77983 3.00387 2.99131 
15 1 7.07375 3.71015 3.70034 
28 1 10.0741 0.661716 0.633167 
29 1 8.58897 2.18659 2.17057 
30 1 9.28255 1.47436 1.45257 
1 1 6.17458 4.61213 6.17776 
2 1 7.68369 3.09006 7.6939 
3 1 6.97914 3.8007 6.98597 
40 1 10.0204 0.728652 10.0571 
41 1 8.49461 2.27283 8.50795 
42 1 9.19538 1.56363 9.21944 
7 1 6.17593 6.17485 4.60351 
8 1 7.68424 7.68353 3.07244 
9 1 6.98026 6.97941 3.78716 
43 1 10.0466 10.0425 0.721663 
44 1 8.49714 8.49609 2.25118 
45 1 9.20744 9.20499 1.55001 
22 1 6.2433 6.24413 6.24485 
23 1 7.77799 7.77742 7.78964 
24 1 7.07188 7.07195 7.07897 
34 1 10.1013 10.0969 10.1309 
35 1 8.59055 8.58887 8.60523 
36 1 9.29663 9.29378 9.31828 
ITEM: TIMESTEP
130
ITEM: NUMBER OF ATOMS
49
ITEM: BOX BOUNDS pp pp pp
-4.1024247217071857e-03 1.1004102424721703e+01
-5.0643174247879232e-04 1.1002506431742480e+01
-3.4332701963594697e-02 1.1034332701963624e+01
ITEM: ATOMS id type x y z 
10 1 4.61623 4.61921 4.59679 
11 1 3.13127 3.17191 2.9606 
12 1 3.81728 3.84072 3.71566 
46 1 0.736471 0.75314 0.62773 
47 1 2.19576 2.13354 2.45049 
48 1 1.56273 1.59844 1.39389 
49 2 1.99063 1.63765 3.45229 
19 1 4.54105 4.54217 6.2365 
20 1 3.00884 3.01009 7.78925 
21 1 3.71294 3.71412 7.07573 
31 1 0.64697 0.651223 10.0585 
32 1 2.19125 2.19327 8.60093 
33 1 1.47003 1.47312 9.28171 
16 1 4.54176 6.24307 4.53563 
17 1 3.00199 7.779 2.98875 
18 1 3.70847 7.07426 3.6985 
25 1 0.66004 10.0805 0.631862 
26 1 2.18393 8.58895 2.16674 
27 1 1.47262 9.28516 1.4503 
4 1 4.61018 6.17472 6.17734 
5 1 3.08727 7.68368 7.69519 
6 1 3.79785 6.97955 6.98699 
37 1 0.728407 10.0217 10.0655 
38 1 2.26982 8.49439 8.51288 
39 1 1.5624 9.1954 9.22545 
13 1 6.24155 4.54251 4.53522 
14 1 7.77978 3.00414 2.98982 
15 1 7.07389 3.71012 3.69899 
28 1 10.0752 0.660994 0.628836 
29 1 8.58957 2.18618 2.16786 
30 1 9.28306 1.47437 1.4495 
1 1 6.17421 4.61249 6.17768 
2 1 7.68396 3.09006 7.69543 
3 1 6.97942 3.80042 6.98735 
40 1 10.0216 0.727905 10.0612 
41 1 8.49551 2.27217 8.51073 
42 1 9.19603 1.56331 9.22245 
7 1 6.1756 6.17448 4.60335 
8 1 7.68448 7.68359 3.07071 
9 1 6.98065 6.97962 3.78556 
43 1 10.0478 10.0433 0.717475 
44 1 8.49805 8.49672 2.24823 
45 1 9.20814 9.20532 1.54687 
22 1 6.24293 6.24369 6.24489 
23 1 7.77789 7.7771 7.79099 
24 1 7.07205 7.07197 7.08003 
34 1 10.1024 10.0977 10.135 
35 1 8.59117 8.58927 8.60777 
36 1 9.29712 9.29375 9.32121 
ITEM: TIMESTEP
140
ITEM: NUMBER OF ATOMS
49
ITEM: BOX BOUNDS pp pp pp
-4.5384473053637821e-03 1.1004538447305359e+01
-2.3324392515884434e-04 1.1002233243925161e+01
-3.8575656344184708e-02 1.1038575656344218e+01
ITEM: ATOMS id type x y z 
10 1 4.61656 4.61974 4.59618 
11 1 3.13114 3.17207 2.95881 
12 1 3.81681 3.84049 3.71387 
46 1 0.735699 0.753123 0.622933 
47 1 2.19515 2.13316 2.44871 
48 1 1.56195 1.59793 1.39115 
49 2 1.99068 1.63805 3.4516 
19 1 4.5416 4.54285 6.23593 
20 1 3.00936 3.01094 7.79034 
21 1 3.71297 3.71437 7.07664 
31 1 0.645994 0.650923 10.0627 
32 1 2.19084 2.19331 8.60333 
33 1 1.46996 1.47355 9.28417 
16 1 4.54228 6.24222 4.53558 
17 1 3.00237 7.77828 2.98743 
18 1 3.70847 7.07411 3.69722 
25 1 0.659126 10.0809 0.627301 
26 1 2.18345 8.589 2.16396 
27 1 1.47253 9.28482 1.4474 
4 1 4.61071 6.17398 6.17708 
5 1 3.08728 7.68341 7.6967 
6 1 3.79744 6.97971 6.98835 
37 1 0.727382 10.0222 10.0698 
38 1 2.26893 8.49486 8.51582 
39 1 1.56195 9.19527 9.22849 
13 1 6.24077 4.54317 4.53518 
14 1 7.77937 3.00488 2.98853 
15 1 7.07386 3.71032 3.69772 
28 1 10.0762 0.660746 0.624301 
29 1 8.59 2.18613 2.16511 
30 1 9.28315 1.47482 1.44657 
1 1 6.17355 4.6131 6.1774 
2 1 7.68396 3.09042 7.69691 
3 1 6.97973 3.80023 6.98868 
40 1 10.0226 0.727489 10.0655 
41 1 8.49634 2.27167 8.51367 
42 1 9.19641 1.5634 9.22549 
7 1 6.17504 6.17385 4.60337 
8 1 7.68449 7.68331 3.069 
9 1 6.98104 6.97981 3.78401 
43 1 10.049 10.0439 0.713093 
44 1 8.49892 8.49722 2.24511 
45 1 9.20863 9.2053 1.54375 
22 1 6.24226 6.24296 6.24465 
23 1 7.77738 7.77633 7.79212 
24 1 7.07207 7.07175 7.08097 
34 1 10.1034 10.098 10.1392 
35 1 8.59161 8.58932 8.61038 
36 1 9.29721 9.2933 9.324 
ITEM: TIMESTEP
150
ITEM: NUMBER OF ATOMS
49
ITEM: BOX BOUNDS pp pp pp
-5.7299515718554567e-03 1.1005729951571851e+01
-7.5265726601242444e-04 1.1002752657266017e+01
-4.2512926998392507e-02 1.1042512926998430e+01
ITEM: ATOMS id type x y z 
10 1 4.61668 4.62007 4.59546 
11 1 3.13062 3.17178 2.9572 
12 1 3.81608 3.84 3.71211 
46 1 0.73428 0.752472 0.618248 
47 1 2.19397 2.13214 2.44719 
48 1 1.56056 1.5967 1.3889 
49 2 1.99036 1.63798 3.45122 
19 1 4.54208 4.54342 6.23518 
20 1 3.00966 3.01152 7.79133 
21 1 3.7127 3.71435 7.07725 
31 1 0.644382 0.649954 10.0666 
32 1 2.18996 2.1928 8.60538 
33 1 1.46945 1.47357 9.28658 
16 1 4.54276 6.24147 4.53565 
17 1 3.00251 7.77794 2.98629 
18 1 3.70809 7.07404 3.69606 
25 1 0.657586 10.082 0.623071 
26 1 2.18248 8.58956 2.16144 
27 1 1.47197 9.28493 1.44458 
4 1 4.61105 6.17328 6.17682 
5 1 3.08696 7.68339 7.69817 
6 1 3.79677 6.98024 6.98949 
37 1 0.725652 10.0233 10.0741 
38 1 2.26754 8.49578 8.51861 
39 1 1.561 9.19567 9.23138 
13 1 6.24002 4.54374 4.53524 
14 1 7.77926 3.00534 2.9874 
15 1 7.074 3.71019 3.69663 
28 1 10.0778 0.659884 0.62007 
29 1 8.59092 2.1856 2.16259 
30 1 9.28363 1.47471 1.44376 
1 1 6.1729 4.61349 6.1771 
2 1 7.68417 3.09041 7.69835 
3 1 6.98043 3.79979 6.98978 
40 1 10.0243 0.726358 10.0697 
41 1 8.49758 2.27068 8.51649 
42 1 9.19733 1.5629 9.2283 
7 1 6.17464 6.17335 4.60345 
8 1 7.68485 7.68336 3.06745 
9 1 6.98158 6.98025 3.78246 
43 1 10.0509 10.0452 0.708917 
44 1 8.50028 8.49819 2.24215 
45 1 9.20961 9.20584 1.5408 