LAMMPS (3 Mar 2020)
Reading data file ...
  orthogonal box = (0 0 0) to (11 11.002 11)
  2 by 2 by 2 MPI processor grid
  reading atoms ...
  49 atoms
  read_data CPU = 0.00425621 secs
WARNING: Changed valency_val to valency_boc for X (../reaxc_ffield.cpp:315)
WARNING: Using 'neigh_modify every 1 delay 0 check yes' setting during minimization (../min.cpp:190)
Neighbor list info ...
  update every 1 steps, delay 0 steps, check yes
  max neighbors/atom: 2000, page size: 100000
  master list distance cutoff = 12
  ghost atom cutoff = 12
  binsize = 6, bins = 2 2 2
  2 neighbor lists, perpetual/occasional/extra = 2 0 0
  (1) pair reax/c, perpetual
      attributes: half, newton off, ghost
      pair build: half/bin/newtoff/ghost
      stencil: half/ghost/bin/3d/newtoff
      bin: standard
  (2) fix qeq/reax, perpetual, copy from (1)
      attributes: half, newton off, ghost
      pair build: copy
      stencil: none
      bin: none
Setting up cg style minimization ...
  Unit style    : real
  Current step  : 0
Per MPI rank memory allocation (min/avg/max) = 24.63 | 24.76 | 24.96 Mbytes
Step Temp E_pair E_mol TotEng Press 
       0            0   -8591.6405            0   -8591.6405    134405.21 
      62            0   -8749.6988            0   -8749.6988    44254.173 
Loop time of 1.97377 on 8 procs for 62 steps with 49 atoms

99.1% CPU use with 8 MPI tasks x no OpenMP threads

Minimization stats:
  Stopping criterion = energy tolerance
  Energy initial, next-to-last, final = 
        -8591.64053465     -8749.69877055     -8749.69881697
  Force two-norm initial, final = 1226.09 72.3547
  Force max component initial, final = 322.132 20.0047
  Final line search alpha, max atom move = 3.90537e-05 0.000781258
  Iterations, force evaluations = 62 402

MPI task timing breakdown:
Section |  min time  |  avg time  |  max time  |%varavg| %total
---------------------------------------------------------------
Pair    | 1.6342     | 1.6504     | 1.6754     |   1.0 | 83.62
Neigh   | 0          | 0          | 0          |   0.0 |  0.00
Comm    | 0.020462   | 0.045387   | 0.061676   |   5.8 |  2.30
Output  | 0.00015836 | 0.00020307 | 0.00033234 |   0.0 |  0.01
Modify  | 0.2736     | 0.27386    | 0.27418    |   0.0 | 13.88
Other   |            | 0.003898   |            |       |  0.20

Nlocal:    6.125 ave 7 max 6 min
Histogram: 7 0 0 0 0 0 0 0 0 1
Nghost:    941.5 ave 952 max 934 min
Histogram: 1 0 3 0 0 3 0 0 0 1
Neighs:    1690.5 ave 1913 max 1655 min
Histogram: 7 0 0 0 0 0 0 0 0 1

Total # of neighbors = 13524
Ave neighs/atom = 276
Neighbor list builds = 0
Dangerous builds = 0
WARNING: Using 'neigh_modify every 1 delay 0 check yes' setting during minimization (../min.cpp:190)
Setting up cg style minimization ...
  Unit style    : real
  Current step  : 62
Per MPI rank memory allocation (min/avg/max) = 24.63 | 24.76 | 24.96 Mbytes
Step Temp E_pair E_mol TotEng Press 
      62            0   -8749.6988            0   -8749.6988     44254.17 
      63            0   -8749.6988            0   -8749.6988    44254.134 
Loop time of 0.0516469 on 8 procs for 1 steps with 49 atoms

99.2% CPU use with 8 MPI tasks x no OpenMP threads

Minimization stats:
  Stopping criterion = energy tolerance
  Energy initial, next-to-last, final = 
         -8749.6988179      -8749.6988179     -8749.69883149
  Force two-norm initial, final = 72.3547 72.3537
  Force max component initial, final = 20.0047 20.0047
  Final line search alpha, max atom move = 3.90534e-05 0.000781252
  Iterations, force evaluations = 1 10

MPI task timing breakdown:
Section |  min time  |  avg time  |  max time  |%varavg| %total
---------------------------------------------------------------
Pair    | 0.043796   | 0.044308   | 0.044856   |   0.2 | 85.79
Neigh   | 0          | 0          | 0          |   0.0 |  0.00
Comm    | 0.00056972 | 0.0011148  | 0.0016263  |   1.0 |  2.16
Output  | 0          | 0          | 0          |   0.0 |  0.00
Modify  | 0.0060505  | 0.0060577  | 0.0060718  |   0.0 | 11.73
Other   |            | 0.0001663  |            |       |  0.32

Nlocal:    6.125 ave 7 max 6 min
Histogram: 7 0 0 0 0 0 0 0 0 1
Nghost:    941.5 ave 952 max 934 min
Histogram: 1 0 3 0 0 3 0 0 0 1
Neighs:    1694.75 ave 1919 max 1658 min
Histogram: 7 0 0 0 0 0 0 0 0 1

Total # of neighbors = 13558
Ave neighs/atom = 276.694
Neighbor list builds = 0
Dangerous builds = 0
WARNING: Using 'neigh_modify every 1 delay 0 check yes' setting during minimization (../min.cpp:190)
Setting up cg style minimization ...
  Unit style    : real
  Current step  : 63
WARNING: Energy due to 3 extra global DOFs will be included in minimizer energies
Per MPI rank memory allocation (min/avg/max) = 24.63 | 24.76 | 24.96 Mbytes
Step Temp E_pair E_mol TotEng Press Volume 
      63            0   -8749.6988            0   -8749.6988    44254.131     1331.242 
     378            0   -8760.2097            0   -8760.2097   -449.48835    1348.8322 
Loop time of 2.67774 on 8 procs for 315 steps with 49 atoms

99.0% CPU use with 8 MPI tasks x no OpenMP threads

Minimization stats:
  Stopping criterion = energy tolerance
  Energy initial, next-to-last, final = 
        -8749.69883243     -8760.20962167     -8760.20969468
  Force two-norm initial, final = 1490.68 47.2789
  Force max component initial, final = 898.088 10.2949
  Final line search alpha, max atom move = 5.16657e-08 5.31891e-07
  Iterations, force evaluations = 315 591

MPI task timing breakdown:
Section |  min time  |  avg time  |  max time  |%varavg| %total
---------------------------------------------------------------
Pair    | 2.3498     | 2.3821     | 2.4136     |   1.2 | 88.96
Neigh   | 0          | 0          | 0          |   0.0 |  0.00
Comm    | 0.0289     | 0.060356   | 0.092856   |   7.7 |  2.25
Output  | 0.00066509 | 0.00091018 | 0.0015489  |   0.0 |  0.03
Modify  | 0.21811    | 0.21827    | 0.21862    |   0.0 |  8.15
Other   |            | 0.01608    |            |       |  0.60

Nlocal:    6.125 ave 7 max 6 min
Histogram: 7 0 0 0 0 0 0 0 0 1
Nghost:    941.5 ave 952 max 934 min
Histogram: 1 0 3 0 0 3 0 0 0 1
Neighs:    1694.75 ave 1919 max 1658 min
Histogram: 7 0 0 0 0 0 0 0 0 1

Total # of neighbors = 13558
Ave neighs/atom = 276.694
Neighbor list builds = 0
Dangerous builds = 0
WARNING: Using 'neigh_modify every 1 delay 0 check yes' setting during minimization (../min.cpp:190)
Setting up cg style minimization ...
  Unit style    : real
  Current step  : 378
Per MPI rank memory allocation (min/avg/max) = 24.63 | 24.76 | 24.96 Mbytes
Step Temp E_pair E_mol TotEng Press 
     378            0   -8760.2097            0   -8760.2097   -449.49298 
     379            0   -8760.2098            0   -8760.2098   -448.69226 
Loop time of 0.0892665 on 8 procs for 1 steps with 49 atoms

98.9% CPU use with 8 MPI tasks x no OpenMP threads

Minimization stats:
  Stopping criterion = energy tolerance
  Energy initial, next-to-last, final = 
        -8760.20969551     -8760.20969551     -8760.20976617
  Force two-norm initial, final = 44.7484 45.5434
  Force max component initial, final = 10.2949 13.2724
  Final line search alpha, max atom move = 7.41088e-08 9.83604e-07
  Iterations, force evaluations = 1 20

MPI task timing breakdown:
Section |  min time  |  avg time  |  max time  |%varavg| %total
---------------------------------------------------------------
Pair    | 0.077535   | 0.078478   | 0.079313   |   0.2 | 87.91
Neigh   | 0          | 0          | 0          |   0.0 |  0.00
Comm    | 0.00092759 | 0.0017588  | 0.0027001  |   1.2 |  1.97
Output  | 0          | 0          | 0          |   0.0 |  0.00
Modify  | 0.0087724  | 0.0087793  | 0.0087875  |   0.0 |  9.83
Other   |            | 0.00025    |            |       |  0.28

Nlocal:    6.125 ave 7 max 6 min
Histogram: 7 0 0 0 0 0 0 0 0 1
Nghost:    905.5 ave 916 max 898 min
Histogram: 1 0 3 0 0 3 0 0 0 1
Neighs:    1675.75 ave 1893 max 1639 min
Histogram: 7 0 0 0 0 0 0 0 0 1

Total # of neighbors = 13406
Ave neighs/atom = 273.592
Neighbor list builds = 0
Dangerous builds = 0
WARNING: Using 'neigh_modify every 1 delay 0 check yes' setting during minimization (../min.cpp:190)
Setting up cg style minimization ...
  Unit style    : real
  Current step  : 379
WARNING: Energy due to 3 extra global DOFs will be included in minimizer energies
Per MPI rank memory allocation (min/avg/max) = 24.63 | 24.76 | 24.96 Mbytes
Step Temp E_pair E_mol TotEng Press Volume 
     379            0   -8760.2098            0   -8760.2098   -448.69388    1348.8322 
     380            0   -8760.2099            0   -8760.2099   -374.62232    1348.8279 
Loop time of 0.0466986 on 8 procs for 1 steps with 49 atoms

99.2% CPU use with 8 MPI tasks x no OpenMP threads

Minimization stats:
  Stopping criterion = energy tolerance
  Energy initial, next-to-last, final = 
        -8760.20976643     -8760.20976643     -8760.20985097
  Force two-norm initial, final = 48.0446 48.0296
  Force max component initial, final = 13.2724 11.1085
  Final line search alpha, max atom move = 8.47016e-08 9.4091e-07
  Iterations, force evaluations = 1 10

MPI task timing breakdown:
Section |  min time  |  avg time  |  max time  |%varavg| %total
---------------------------------------------------------------
Pair    | 0.04141    | 0.041917   | 0.0424     |   0.1 | 89.76
Neigh   | 0          | 0          | 0          |   0.0 |  0.00
Comm    | 0.00045632 | 0.0009371  | 0.0014448  |   0.0 |  2.01
Output  | 0          | 0          | 0          |   0.0 |  0.00
Modify  | 0.0035365  | 0.0035428  | 0.003548   |   0.0 |  7.59
Other   |            | 0.0003022  |            |       |  0.65

Nlocal:    6.125 ave 7 max 6 min
Histogram: 7 0 0 0 0 0 0 0 0 1
Nghost:    905.5 ave 916 max 898 min
Histogram: 1 0 3 0 0 3 0 0 0 1
Neighs:    1675.75 ave 1893 max 1639 min
Histogram: 7 0 0 0 0 0 0 0 0 1

Total # of neighbors = 13406
Ave neighs/atom = 273.592
Neighbor list builds = 0
Dangerous builds = 0
WARNING: Using 'neigh_modify every 1 delay 0 check yes' setting during minimization (../min.cpp:190)
Setting up cg style minimization ...
  Unit style    : real
  Current step  : 380
Per MPI rank memory allocation (min/avg/max) = 24.63 | 24.76 | 24.96 Mbytes
Step Temp E_pair E_mol TotEng Press 
     380            0   -8760.2099            0   -8760.2099   -374.63001 
     381            0   -8760.2099            0   -8760.2099   -374.15308 
Loop time of 0.090496 on 8 procs for 1 steps with 49 atoms

99.2% CPU use with 8 MPI tasks x no OpenMP threads

Minimization stats:
  Stopping criterion = energy tolerance
  Energy initial, next-to-last, final = 
         -8760.2098532      -8760.2098532     -8760.20991426
  Force two-norm initial, final = 46.2985 43.449
  Force max component initial, final = 11.1085 10.1481
  Final line search alpha, max atom move = 6.86805e-08 6.96977e-07
  Iterations, force evaluations = 1 20

MPI task timing breakdown:
Section |  min time  |  avg time  |  max time  |%varavg| %total
---------------------------------------------------------------
Pair    | 0.078579   | 0.079493   | 0.080277   |   0.2 | 87.84
Neigh   | 0          | 0          | 0          |   0.0 |  0.00
Comm    | 0.00095631 | 0.0017268  | 0.0026374  |   1.2 |  1.91
Output  | 0          | 0          | 0          |   0.0 |  0.00
Modify  | 0.0090125  | 0.0090304  | 0.0090498  |   0.0 |  9.98
Other   |            | 0.0002457  |            |       |  0.27

Nlocal:    6.125 ave 7 max 6 min
Histogram: 7 0 0 0 0 0 0 0 0 1
Nghost:    905.5 ave 916 max 898 min
Histogram: 1 0 3 0 0 3 0 0 0 1
Neighs:    1675.75 ave 1893 max 1639 min
Histogram: 7 0 0 0 0 0 0 0 0 1

Total # of neighbors = 13406
Ave neighs/atom = 273.592
Neighbor list builds = 0
Dangerous builds = 0
Setting up Verlet run ...
  Unit style    : real
  Current step  : 0
  Time step     : 0.25
Per MPI rank memory allocation (min/avg/max) = 23.51 | 23.64 | 23.83 Mbytes
Step Temp TotEng KinEng PotEng Press 
       0          300   -8717.2862    42.923665   -8760.2099     1080.544 
     200    216.79601      -8699.2    31.018931   -8730.2189    10952.079 
     400    346.21239   -8673.0152    49.535682   -8722.5509    30803.656 
     600    352.73474   -8669.5938    50.468893   -8720.0627   -21322.106 
     800    285.06351   -8680.0804    40.786569   -8720.8669   -20004.405 
    1000    292.64506    -8675.044    41.871328   -8716.9154    29104.835 
    1200    302.35754    -8666.416    43.260979    -8709.677     58417.36 
    1400    249.14932   -8683.6556    35.648007   -8719.3036   -1900.0836 
    1600    318.74938   -8674.1952    45.606305   -8719.8015   -20033.028 
    1800    217.46874   -8688.9586    31.115184   -8720.0737   -5117.5163 
    2000     291.9852   -8679.0818    41.776916   -8720.8587   -30023.123 
    2200    303.71189   -8679.0585    43.454758   -8722.5132    1348.1513 
    2400    226.12196   -8686.6445    32.353278   -8718.9978   -5533.7348 
    2600    322.00064   -8672.3142    46.071492   -8718.3857   -14041.886 
    2800    280.45666   -8681.8249    40.127426   -8721.9523    3602.6185 
    3000    304.63041   -8674.0299    43.586179   -8717.6161   -33462.878 
    3200    328.83307   -8674.0445    47.049068   -8721.0935    32738.522 
    3400    283.99673   -8680.6284    40.633935   -8721.2623    29635.629 
    3600    389.37722   -8662.2518    55.711657   -8717.9635   -14886.274 
    3800    275.97607   -8677.0622    39.486348   -8716.5485   -19364.286 
    4000    301.78209   -8675.7712    43.178644   -8718.9499   -22428.709 
    4200     279.7893   -8679.7778     40.03194   -8719.8097    -31274.49 
    4400    311.74765   -8668.7304    44.604506   -8713.3349   -43323.758 
    4600    278.45802   -8676.0591    39.841463   -8715.9005   -3676.8289 
    4800    277.71483   -8682.0329    39.735128    -8721.768   -9496.4194 
    5000    291.05543   -8672.3073    41.643885   -8713.9512    39121.277 
    5200    341.01053   -8668.9103    48.791406   -8717.7017     8068.448 
    5400    317.69058   -8675.6486    45.454813   -8721.1034   -29955.803 
    5600    326.58035   -8679.1253    46.726752    -8725.852    870.94233 
    5800    316.49086   -8680.6057    45.283158   -8725.8889    3320.9235 
    6000    289.25091   -8675.5311    41.385697   -8716.9168    9711.2859 
    6200    346.96831   -8666.1833    49.643838   -8715.8271    31082.327 
    6400    303.33665   -8682.4104    43.401069   -8725.8115    34256.205 
    6600     343.0243   -8674.4337    49.079533   -8723.5132   -38808.911 
    6800    386.82829   -8652.8427     55.34696   -8708.1896    34609.166 
    7000    331.29471   -8674.8844    47.401277   -8722.2857    6724.6009 
    7200    313.47443   -8682.8664    44.851572    -8727.718   -24066.892 
    7400    355.64894   -8665.9035    50.885853   -8716.7893   -9767.4735 
    7600    301.51291   -8673.1978     43.14013   -8716.3379    7202.9316 
    7800    304.92302   -8682.0332    43.628045   -8725.6613    7176.8333 
    8000    242.67712   -8675.3633    34.721971   -8710.0853   -8041.4594 
    8200    313.25977   -8661.0586    44.820857   -8705.8795   -29404.088 
    8400    323.56836   -8675.7402      46.2958    -8722.036   -15236.768 
    8600    287.80253   -8683.1557    41.178464   -8724.3342   -29670.168 
    8800    374.05939   -8666.5906        53.52   -8720.1106   -7437.8534 
    9000    302.61402   -8675.9194    43.297676    -8719.217   -8339.6681 
    9200    290.86696    -8677.354     41.61692   -8718.9709    85009.123 
    9400    381.37894    -8661.923    54.567272   -8716.4903   -13409.249 
    9600    329.71308   -8676.7167    47.174978   -8723.8917   -32826.237 
    9800    308.91127   -8678.6078    44.198679   -8722.8065   -5066.5981 
   10000    287.66723   -8675.7839    41.159105    -8716.943   -9490.5305 
   10200    343.54089   -8675.8489    49.153446   -8725.0024    10434.746 
   10400    312.71039   -8677.9584    44.742253   -8722.7006   -7597.5348 
   10600    320.41975   -8687.8733      45.8453   -8733.7186    4062.9191 
   10800    276.34769   -8679.7239    39.539519   -8719.2634   -12430.133 
   11000     292.5321   -8677.4701    41.855166   -8719.3253   -7543.1246 
   11200    210.68389   -8687.7436    30.144416   -8717.8881   -3719.5662 
   11400     299.5723   -8668.8099     42.86247   -8711.6723   -37515.599 
   11600    286.28716   -8681.8071    40.961647   -8722.7687   -17082.436 
   11800    311.32061    -8677.754    44.543404   -8722.2974   -7550.6663 
   12000    307.69546   -8677.6696    44.024723   -8721.6944    33148.304 
   12200    254.07589   -8683.6174    36.352894   -8719.9703    1952.0174 
   12400    273.77608   -8672.6343    39.171576   -8711.8059    785.78592 
   12600    320.36633   -8674.1537    45.837656   -8719.9913   -40088.588 
   12800    264.59376   -8680.4417     37.85778   -8718.2995    10235.903 
   13000    313.80138   -8678.5912    44.898351   -8723.4895    36534.957 
   13200    264.80469   -8691.6108    37.887959   -8729.4987    9936.8739 
   13400    287.23622   -8679.8918    41.097437   -8720.9893    9598.8465 
   13600    292.27153   -8675.9664    41.817884   -8717.7843   -6520.9429 
   13800     330.0721   -8669.7062    47.226348   -8716.9325   -5443.0987 
   14000    274.09606   -8686.8103    39.217358   -8726.0277   -13555.849 
   14200    271.49088     -8681.12    38.844612   -8719.9646    24162.151 
   14400    262.46042    -8671.723    37.552543   -8709.2755    20262.194 
   14600    258.72673   -8679.2759    37.018332   -8716.2942   -4106.0818 
   14800    241.81377   -8683.7831    34.598445   -8718.3816    -7500.289 
   15000    290.13385   -8667.9799    41.512027    -8709.492    5053.0071 
   15200    277.65038   -8683.3014    39.725905   -8723.0273    951.04917 
   15400    274.10872    -8680.043    39.219169   -8719.2622   -10328.869 
   15600    363.17508   -8665.5438    51.962684   -8717.5064   -44429.767 
   15800    303.82853   -8669.2087    43.471446   -8712.6802   -23676.036 
   16000    327.32256   -8673.9854    46.832947   -8720.8183    14362.829 
   16200    328.25584   -8672.4941    46.966478   -8719.4606    24793.802 
   16400    316.82803   -8682.4703      45.3314   -8727.8017    22472.961 
   16600    325.22962   -8680.0701    46.533491   -8726.6036   -21098.488 
   16800    328.61803   -8669.7415      47.0183   -8716.7598   -25264.668 
   17000    281.43372   -8685.8817    40.267222   -8726.1489    14898.357 
   17200    347.87642   -8666.7655     49.77377   -8716.5392    22521.528 
   17400    266.74783   -8675.2931    38.165981   -8713.4591   -19641.849 
   17600    316.50411    -8677.326    45.285055    -8722.611   -48826.952 
   17800     223.3086    -8690.519    31.950745   -8722.4698   -4802.7297 
   18000    321.30387   -8677.0454    45.971798   -8723.0172    15288.325 
   18200    301.36022   -8676.3058    43.118284    -8719.424   -3266.0851 
   18400    268.71505   -8691.3207    38.447448   -8729.7682   -38172.816 
   18600    285.39247   -8673.0974    40.833635    -8713.931    5808.0671 
   18800     316.0317   -8672.3105    45.217463    -8717.528   -19377.195 
   19000    229.69734   -8684.6882    32.864838    -8717.553    34613.491 
   19200     346.2449   -8669.4872    49.540333   -8719.0276   -8747.7734 
   19400    324.70014   -8670.2815    46.457733   -8716.7393    43134.238 
   19600    275.42903   -8677.6812    39.408078   -8717.0893   -9010.8394 
   19800    265.31002   -8688.0632    37.960262   -8726.0234   -4835.5854 
   20000    293.70935   -8672.1744    42.023605    -8714.198    18950.157 
   20200    283.60016   -8669.3263    40.577194   -8709.9035   -46579.199 
   20400    239.49631   -8690.6077    34.266864   -8724.8745     2158.273 
   20600    292.94961    -8679.854    41.914902   -8721.7689    6859.4632 
   20800     352.5569   -8669.8132    50.443448   -8720.2567   -20129.845 
   21000     284.6834   -8683.5828    40.732182    -8724.315   -3768.6208 
   21200    258.44767   -8684.8893    36.978404   -8721.8677   -8982.8505 
   21400    316.85993   -8674.3202    45.335965   -8719.6562   -3250.2768 
   21600    326.24557   -8673.9897    46.678852   -8720.6686    20917.702 
   21800    287.13875    -8685.941    41.083491   -8727.0245   -4420.7892 
   22000    285.41316   -8682.1358    40.836596   -8722.9724   -8501.1866 
   22200    298.70042   -8668.4042    42.737722   -8711.1419   -9525.5114 
   22400    254.65524   -8682.7348    36.435787   -8719.1706   -24237.561 
   22600    305.01129    -8683.901    43.640675   -8727.5417   -13042.157 
   22800    287.46818   -8675.3896    41.130626   -8716.5203   -26695.981 
   23000    310.71047   -8673.2424    44.456107   -8717.6985    16874.805 
   23200    309.32356   -8679.1177     44.25767   -8723.3753     7685.143 
   23400    286.09211   -8677.8446     40.93374   -8718.7784   -23245.316 
   23600    367.02553   -8663.6306    52.513603   -8716.1442   -9019.6912 
   23800    298.19529   -8680.2351    42.665449   -8722.9006   -44157.566 
   24000    304.68874   -8678.5024    43.594525   -8722.0969    12088.818 
   24200    280.50226   -8674.7211     40.13395   -8714.8551    6343.8553 
   24400    373.28325   -8666.3646     53.40895   -8719.7736      20200.8 
   24600    255.96502   -8682.7767    36.623189   -8719.3999    25203.327 
   24800    324.90573   -8671.2478    46.487148   -8717.7349   -31000.736 
   25000    270.01878   -8670.1458    38.633986   -8708.7797    64725.293 
   25200    302.15415   -8679.2375    43.231879   -8722.4694   -8276.4385 
   25400    263.39899   -8689.6949    37.686833   -8727.3817    12946.046 
   25600    309.23048   -8671.2384    44.244352   -8715.4827   -28777.095 
   25800    336.65763    -8671.182    48.168597   -8719.3506    36589.498 
   26000    287.05629   -8682.1938    41.071693   -8723.2655   -44697.106 
   26200    299.92911    -8674.557    42.913522   -8717.4705    17606.458 
   26400    332.59878   -8650.4714    47.587861   -8698.0593    9592.4766 
   26600    311.34488   -8670.3186    44.546878   -8714.8655   -41054.374 
   26800    269.27162   -8681.4943    38.527083   -8720.0214    28856.452 
   27000    272.01628   -8677.6609    38.919785   -8716.5807   -68710.391 
   27200    338.72814   -8666.0201    48.464843   -8714.4849   -55111.299 
   27400    282.06676   -8679.7893    40.357796   -8720.1471   -1820.2071 
   27600     280.6262   -8680.2197    40.151683   -8720.3714    31623.577 
   27800    311.80644   -8661.5472    44.612917   -8706.1601   -29424.118 
   28000      268.914    -8675.801    38.475914   -8714.2769    35268.998 
   28200    272.65838   -8678.5912    39.011657   -8717.6028    27786.085 
   28400    259.48858   -8692.3037    37.127337    -8729.431    11788.104 
   28600    283.84394   -8678.4251    40.612074   -8719.0372   -23211.031 
   28800    254.01186   -8674.2686    36.343734   -8710.6123    8959.9542 
   29000    306.86443   -8675.5255     43.90582   -8719.4313    5681.5502 
   29200    285.75552   -8686.7911     40.88558   -8727.6766   -16052.566 
   29400    335.78565   -8677.8994    48.043836   -8725.9432   -16175.742 
   29600    337.58669   -8670.1874    48.301527   -8718.4889    13932.184 
   29800    286.79579   -8682.4624    41.034421   -8723.4968    13121.801 
   30000     328.8684   -8677.9215    47.054123   -8724.9756     33707.88 
   30200    361.18633   -8672.5524    51.678136   -8724.2306    35381.266 
   30400    282.74165   -8680.4991    40.454359   -8720.9534    21661.601 
   30600    307.02562   -8681.6462    43.928882   -8725.5751   -12258.981 
   30800    354.49728   -8666.6488    50.721074   -8717.3699   -8553.9144 
   31000    290.88161   -8676.6135    41.619016   -8718.2325    26345.212 
   31200    274.26976   -8679.4687    39.242211   -8718.7109    -30739.24 
   31400    294.41059   -8674.7942    42.123938   -8716.9182   -46910.169 
   31600    288.89384   -8671.2389    41.334608   -8712.5736    29917.348 
   31800    250.90854   -8686.0363    35.899714   -8721.9361   -15580.385 
   32000    310.13613   -8673.2182     44.37393   -8717.5921   -26658.164 
   32200    331.65392   -8671.4985    47.452672   -8718.9511    31592.262 
   32400    282.58439    -8681.464    40.431859   -8721.8959   -30032.862 
   32600    259.25932   -8684.1914    37.094533   -8721.2859    49240.274 
   32800    288.42987   -8671.6858    41.268224   -8712.9541    61002.742 
   33000    298.07377    -8675.607    42.648062    -8718.255    -22597.65 
   33200    288.21668     -8679.92    41.237721   -8721.1578     -34877.5 
   33400    215.62277   -8685.7115    30.851065   -8716.5625    -44275.53 
   33600     293.6094   -8669.6329    42.009305   -8711.6422      9813.17 
   33800    294.27509   -8676.6864    42.104551    -8718.791   -26213.653 
   34000    271.66685   -8691.9341    38.869789   -8730.8039      30800.3 
   34200    294.73589   -8677.3439    42.170482   -8719.5144    40831.645 
   34400    288.23086   -8671.7764    41.239749   -8713.0161   -24283.751 
   34600    296.88375   -8680.2457    42.477796   -8722.7234    4744.6514 
   34800    272.15986   -8689.0512    38.940329   -8727.9916    17585.523 
   35000    274.01809   -8669.5292    39.206202   -8708.7354    9939.6105 
   35200     298.0921   -8671.5947    42.650684   -8714.2454   -8717.5799 
   35400    268.16355   -8683.3485     38.36854    -8721.717    695.41647 
   35600    350.65105   -8673.5396    50.170761   -8723.7104   -29768.352 
   35800     333.9208    -8653.783    47.777015     -8701.56   -39366.433 
   36000    316.44676   -8671.9765    45.276849   -8717.2534   -7024.1515 
   36200    259.61337   -8683.4844    37.145191   -8720.6296   -15244.984 
   36400    334.74388   -8666.1697     47.89478   -8714.0645    1787.5571 
   36600     348.9882   -8671.2382    49.932841    -8721.171   -32305.896 
   36800    281.70322   -8681.7923    40.305781   -8722.0981   -7488.2678 
   37000    384.41652    -8665.543    55.001886   -8720.5449    50005.089 
   37200    398.93006   -8663.8927    57.078467   -8720.9712   -5078.3163 
   37400    315.02417   -8679.4168    45.073306   -8724.4901   -20148.431 
   37600    342.87554   -8674.2129     49.05825   -8723.2711    8612.6037 
   37800    354.94121   -8662.7342    50.784592   -8713.5188    8086.0391 
   38000    282.20318   -8680.1021    40.377315   -8720.4794   -23167.441 
   38200    302.57906   -8683.1736    43.292673   -8726.4663   -14598.171 
   38400    324.96322   -8670.6305    46.495375   -8717.1259    16461.614 
   38600    315.49026   -8670.9402    45.139994   -8716.0802    5588.1025 
   38800    299.04859   -8683.2456    42.787537   -8726.0331   -4153.0554 
   39000    302.25646   -8677.3084    43.246516   -8720.5549   -22198.033 
   39200    338.15077   -8672.3015    48.382234   -8720.6838   -29014.386 
   39400    299.34124   -8683.4491     42.82941   -8726.2785   -6223.2708 
   39600    313.94116   -8676.5048     44.91835   -8721.4232    33575.899 
   39800    301.17489   -8681.1083    43.091767      -8724.2   -2246.6488 
   40000    344.44082   -8667.3087    49.282207   -8716.5909   -40370.239 
   40200    329.74516   -8674.4083    47.179569   -8721.5879    9677.0918 
   40400    294.17076   -8678.5887    42.089623   -8720.6783    23567.544 
   40600    295.84066   -8672.8437    42.328551   -8715.1722    28186.353 
   40800     319.7055   -8666.4947    45.743106   -8712.2378   -8086.8395 
   41000    264.64359   -8682.3238    37.864909   -8720.1887   -3029.7126 
   41200    343.58144   -8669.3996    49.159249   -8718.5589    25776.702 
   41400    251.64553   -8678.3259    36.005161   -8714.3311   -19426.323 
   41600    260.72061   -8683.7182    37.303613   -8721.0218    -22878.79 
   41800    280.26654   -8666.7405    40.100223   -8706.8407    8534.1752 
   42000    304.20089   -8666.4619    43.524723   -8709.9866    -6006.053 
   42200    258.98572   -8684.4519    37.055388   -8721.5073    -25606.49 
   42400    287.74426   -8674.6581    41.170127   -8715.8282    -45951.35 
   42600    296.62701   -8665.6648    42.441062   -8708.1059    38381.989 
   42800    283.54157   -8676.8643    40.568811   -8717.4331    9272.9397 
   43000    270.30005   -8678.8611    38.674228   -8717.5353    12536.847 
   43200    347.72792   -8665.3716    49.752522   -8715.1241    43541.916 
   43400    272.34168     -8676.39    38.966344   -8715.3563   -26125.745 
   43600    242.92674   -8679.8885    34.757686   -8714.6461   -24037.958 
   43800    274.54928   -8671.0919    39.282204   -8710.3741    30013.419 
   44000    294.71223   -8661.0523    42.167096   -8703.2194   -7748.6753 
   44200    282.19102   -8677.3184    40.375576    -8717.694    2519.8138 
   44400    282.29966   -8687.6645     40.39112   -8728.0556     19789.86 
   44600    261.63304   -8682.7893    37.434163   -8720.2235    11655.537 
   44800    297.18956   -8671.8017     42.52155   -8714.3233    44503.128 
   45000    289.64167   -8681.1205    41.441606   -8722.5621    18901.823 
   45200    277.75817    -8688.242    39.741329   -8727.9833    8192.0061 
   45400    328.13978   -8669.1583    46.949873   -8716.1082   -7464.0084 
   45600     303.9268   -8679.0053    43.485507   -8722.4908    12703.437 
   45800    273.11773   -8689.1081     39.07738   -8728.1855    9189.0305 
   46000    252.32209   -8678.4371    36.101963    -8714.539    23531.586 
   46200    304.18795   -8668.3631    43.522871   -8711.8859    15341.577 
   46400    303.53839    -8684.418    43.429934   -8727.8479   -14773.969 
   46600    291.03414   -8681.1943    41.640839   -8722.8351    27360.218 
   46800    324.75308   -8672.6789    46.465308   -8719.1442    911.77099 
   47000    316.60817   -8677.2825    45.299943   -8722.5824   -21913.949 
   47200    221.44242   -8688.5064    31.683734   -8720.1901    34260.228 
   47400    321.31004   -8672.4271    45.972682   -8718.3998    5909.9907 
   47600    322.39526   -8677.1637    46.127954   -8723.2916   -11467.998 
   47800    274.00442   -8687.0254    39.204246   -8726.2297    33427.286 
   48000    334.15045   -8678.2069    47.809873   -8726.0168    7104.5619 
   48200    351.82542   -8672.1231    50.338788   -8722.4619    45505.813 
   48400     337.0579   -8672.3179    48.225867   -8720.5438    -59428.01 
   48600     295.1644   -8682.4391    42.231792   -8724.6709    58931.324 
   48800    343.26411   -8664.5381    49.113846    -8713.652   -16617.678 
   49000    308.25262   -8671.1335     44.10444   -8715.2379   -7445.6695 
   49200    287.95996    -8684.306    41.200989    -8725.507    17380.326 
   49400    220.45685   -8699.8522     31.54272   -8731.3949     10947.45 
   49600    248.49318   -8684.2014    35.554126   -8719.7556   -30290.811 
   49800    406.43155   -8670.2962    58.151771    -8728.448    2737.7127 
   50000    255.29654   -8684.6762    36.527543   -8721.2037   -4512.3217 
   50200    280.64588   -8680.1435    40.154499    -8720.298    11720.493 
   50400    304.79883   -8676.4435    43.610276   -8720.0537   -13534.596 
   50600    331.84182   -8670.7027    47.479557   -8718.1823   -17611.003 
   50800    331.52359   -8674.3339    47.434025   -8721.7679   -6775.2385 
   51000    250.45402   -8682.9885    35.834681   -8718.8232   -32676.559 
   51200     296.1805   -8674.2068    42.377175    -8716.584    424.84682 
   51400    268.84229   -8677.4554    38.465654   -8715.9211    15381.798 
   51600    249.06799   -8688.7699     35.63637   -8724.4063   -2011.3983 
   51800    302.25255   -8674.7846    43.245957   -8718.0306    10406.774 
   52000    254.31282   -8674.9404    36.386794   -8711.3272    52198.275 
   52200    343.49008   -8658.7031    49.146177   -8707.8492   -5271.3234 
   52400     270.6628   -8679.4872    38.726131   -8718.2134    41871.051 
   52600    288.40694   -8678.9426    41.264943   -8720.2076   -22447.883 
   52800    322.00692   -8671.2914    46.072391   -8717.3638    5544.8099 
   53000    320.63212   -8671.6538    45.875685   -8717.5295     19641.12 
   53200    239.15696   -8683.3793    34.218311   -8717.5976   -55011.588 
   53400    316.85962   -8674.0457    45.335921   -8719.3816    6502.0317 
   53600    300.66559    -8673.787    43.018897   -8716.8059   -18343.496 
   53800    347.73532   -8670.7284    49.753582    -8720.482   -22052.908 
   54000    259.47262   -8684.2941    37.125053   -8721.4191    -31383.66 
   54200    332.73325   -8667.9412    47.607102   -8715.5483    68037.789 
   54400    273.48395   -8675.0371    39.129778   -8714.1669   -53908.288 
   54600    276.79466   -8688.0483    39.603471   -8727.6518    10421.924 
   54800     283.3532   -8672.3866    40.541859   -8712.9284   -33315.319 
   55000    304.06945   -8675.9671    43.505917    -8719.473   -11206.426 
   55200      281.854   -8679.4933    40.327356   -8719.8206    6640.5913 
   55400    299.53115     -8671.01    42.856582   -8713.8666    8842.8558 
   55600    254.78468   -8673.5831    36.454307   -8710.0374   -10125.029 
   55800    286.76639   -8679.4458    41.030215   -8720.4761   -877.29274 
   56000     250.9809   -8684.7814    35.910066   -8720.6915   -7588.3928 
   56200    277.93239   -8677.2029    39.766256   -8716.9692   -9252.4954 
   56400     306.0772   -8676.3249    43.793184   -8720.1181    5855.2023 
   56600    301.07289   -8668.8913    43.077173   -8711.9684    15144.252 
   56800    302.99318   -8678.8389    43.351925   -8722.1908   -16773.576 
   57000    288.45077   -8679.2915    41.271214   -8720.5627    33740.569 
   57200    266.91715   -8687.8732    38.190208   -8726.0634   -42064.191 
   57400    339.36474   -8670.9601    48.555928    -8719.516    92096.018 
   57600    296.63705   -8678.8762    42.442498   -8721.3187   -13532.366 
   57800    343.38725   -8678.1517    49.131464   -8727.2832   -16777.279 
   58000    320.85382   -8672.3378    45.907405   -8718.2452    25036.721 
   58200    288.43773   -8678.4779    41.269348   -8719.7472    14115.355 
   58400    293.83336   -8686.0863    42.041349   -8728.1277   -32765.924 
   58600    315.26731   -8667.9495    45.108095   -8713.0576   -26539.761 
   58800    329.81148    -8673.784    47.189058   -8720.9731   -17189.171 
   59000    294.03512    -8689.953    42.070217   -8732.0232    1458.7885 
   59200    285.96725   -8680.9004    40.915874   -8721.8162    -8409.874 
   59400    342.93788   -8671.2715    49.067168   -8720.3387   -39459.858 
   59600    310.00187    -8678.936     44.35472   -8723.2907    21996.991 
   59800    284.61787   -8685.2472    40.722807   -8725.9701    7505.2295 
   60000    317.40663   -8669.0874    45.414186   -8714.5016   -4463.9251 
   60200    326.41985    -8678.103    46.703787   -8724.8068   -17909.509 
   60400    283.43342    -8680.425    40.553336   -8720.9784   -3127.7153 
   60600    340.32973   -8674.8984    48.693997   -8723.5924   -15556.429 
   60800    366.09628   -8666.7189    52.380647   -8719.0995    14160.551 
   61000    266.44912   -8679.7479    38.123242   -8717.8711   -23614.096 
   61200    319.58598   -8680.5221    45.726005   -8726.2481    1813.3116 
   61400    342.41049   -8661.3554    48.991711   -8710.3471   -7181.8138 
   61600    314.20581   -8675.6142    44.956216   -8720.5705    29392.037 
   61800    329.51724   -8678.0474    47.146958   -8725.1944   -29005.534 
   62000    258.55773   -8683.8648    36.994151    -8720.859    -30111.94 
   62200    354.50411   -8666.8861    50.722052   -8717.6082   -5924.4071 
   62400    285.71486   -8678.9413    40.879762   -8719.8211   -13514.832 
   62600    272.34103    -8681.833     38.96625   -8720.7993   -23243.127 
   62800    320.62018   -8671.3075    45.873977   -8717.1815    39302.237 
   63000    273.75396   -8687.2196     39.16841   -8726.3881   -42576.757 
   63200    242.54468   -8680.1344    34.703022   -8714.8374   -8961.4911 
   63400    273.02322   -8674.2004    39.063857   -8713.2643    68234.685 
   63600    280.81273   -8673.4576    40.178371    -8713.636   -14517.327 
   63800    321.39153   -8666.3321    45.984342   -8712.3165    20670.823 
   64000    277.20392   -8684.7526    39.662027   -8724.4146    1617.6152 
   64200    326.04654   -8677.7395    46.650375   -8724.3899    15150.575 
   64400    289.19719    -8671.014    41.378011    -8712.392   -4003.3147 
   64600    310.01816   -8674.6673    44.357051   -8719.0243    64704.378 
   64800    313.75801   -8681.6764    44.892145   -8726.5685   -34120.729 
   65000    363.64984   -8667.9822    52.030612   -8720.0128    22632.067 
   65200     330.8821   -8669.3999    47.342241   -8716.7422   -50491.345 
   65400    291.31233   -8683.4218    41.680642   -8725.1024   -12465.715 
   65600    236.70207   -8674.2366    33.867067   -8708.1037   -15194.234 
   65800    386.54153   -8670.1247     55.30593   -8725.4307   -31508.335 
   66000    296.61452   -8677.5176    42.439274   -8719.9569   -17196.864 
   66200    331.04511   -8674.0438    47.365565   -8721.4094   -6459.9984 
   66400    278.95207   -8684.9627     39.91215   -8724.8748    -49284.14 
   66600    360.58127   -8672.6627    51.591565   -8724.2543   -2808.2407 
   66800    320.85056   -8671.6909    45.906939   -8717.5978    3080.1914 
   67000     305.9214   -8687.9597    43.770892   -8731.7306    30930.724 
   67200    289.60677   -8672.4304    41.436614    -8713.867    9997.9148 
   67400    247.63709   -8670.1448    35.431638   -8705.5765    27992.009 
   67600    255.31694   -8683.7021    36.530462   -8720.2326     59587.94 
   67800    319.17518   -8682.3714    45.667228   -8728.0386     41003.82 
   68000    300.73509    -8671.537     43.02884   -8714.5659    9856.5835 
   68200     360.5151   -8672.2054    51.582097   -8723.7875     -22196.2 
   68400     280.2336   -8678.2267     40.09551   -8718.3222    14339.854 
   68600    316.69145   -8667.0995    45.311859   -8712.4113   -11628.085 
   68800    307.70859   -8674.7069      44.0266   -8718.7335   -37910.126 
   69000     292.1753   -8679.3018    41.804116    -8721.106   -9839.5964 
   69200    401.00609   -8662.4846    57.375503   -8719.8601    5303.3343 
   69400     317.5528   -8678.3185      45.4351   -8723.7536    15338.989 
   69600    304.59038   -8676.6992    43.580451   -8720.2797   -1110.0774 
   69800    290.27358   -8673.7556     41.53202   -8715.2876    7010.8832 
   70000    265.66003   -8688.3438     38.01034   -8726.3542    30448.682 
   70200     313.8446   -8674.7439    44.904535   -8719.6485    -8954.264 
   70400    296.23578   -8675.7575    42.385084   -8718.1426    26591.716 
   70600    326.70768   -8664.1353     46.74497   -8710.8803   -14407.824 
   70800    275.86147   -8678.8959    39.469951   -8718.3659    13137.587 
   71000    332.59819   -8677.3708    47.587778   -8724.9586    16532.626 
   71200    300.37007   -8664.8839    42.976613   -8707.8605    2589.7034 
   71400    277.45728   -8681.1748    39.698278   -8720.8731    4172.6794 
   71600    331.85487   -8677.3879    47.481425   -8724.8693    34452.427 
   71800    289.39073   -8672.1633    41.405702    -8713.569   -9826.4005 
   72000    271.67575   -8682.8142    38.871062   -8721.6853    5854.8848 
   72200    341.20604   -8674.0588    48.819379   -8722.8782    -31950.78 
   72400    229.53387   -8692.1209     32.84145   -8724.9624    26182.163 
   72600    321.04055   -8677.0562    45.934123   -8722.9903   -3873.9129 
   72800    277.98047   -8678.2486    39.773135   -8718.0218   -35922.976 
   73000    333.31537   -8661.9553    47.690391   -8709.6457    26288.147 
   73200     322.3783   -8674.5674    46.125527    -8720.693   -7187.9424 
   73400    319.23632   -8678.9782    45.675976   -8724.6542   -6967.7281 
   73600    351.92088    -8672.076    50.352446   -8722.4284   -20808.775 
   73800    322.96906   -8672.7183    46.210052   -8718.9283     739.3164 
   74000    289.01386   -8680.4627    41.351779   -8721.8145    20911.283 
   74200     337.4916   -8669.7841    48.287921    -8718.072    8294.9055 
   74400    258.31115   -8687.2945    36.958871   -8724.2533    24726.452 
   74600    365.42875   -8674.7316    52.285137   -8727.0168    18187.424 
   74800    255.82316   -8678.4331    36.602892    -8715.036   -26919.748 
   75000    335.51904   -8658.5832    48.005689   -8706.5889   -28557.392 
   75200    324.48497   -8675.9235    46.426947   -8722.3504    -40132.92 
   75400    325.52495   -8679.2848    46.575746   -8725.8606   -6307.0132 
   75600    231.52592   -8691.4245     33.12647    -8724.551   -46.293484 
   75800    334.53107   -8673.3923    47.864331   -8721.2566   -20613.111 
   76000    296.14927   -8673.5681    42.372706   -8715.9408    13387.026 
   76200    252.24041   -8689.4019    36.090276   -8725.4922    12791.644 
   76400    289.17581   -8678.2565    41.374951   -8719.6314    994.98541 
   76600    298.31808    -8677.745    42.683018    -8720.428     999.0133 
   76800    277.73729   -8681.4522     39.73834   -8721.1906    25927.813 
   77000    336.86181    -8673.514    48.197811   -8721.7118   -10544.512 
   77200    313.69616   -8670.7256    44.883296   -8715.6089    6991.1234 
   77400    276.00148   -8684.4362    39.489984   -8723.9262   -28535.982 
   77600     440.9773   -8665.1478    63.094539   -8728.2423    38089.398 
   77800    292.89956   -8671.9903    41.907741    -8713.898    59945.579 
   78000    284.71323   -8688.5336    40.736451     -8729.27    4003.5739 
   78200    281.18653    -8691.608    40.231855   -8731.8399   -13210.727 
   78400    269.21149    -8675.272    38.518479   -8713.7904   -25816.876 
   78600    385.39644   -8665.2034    55.142092   -8720.3455    4445.2021 
   78800    311.85644   -8680.4902    44.620071   -8725.1103    -26478.79 
   79000    298.84962   -8671.2495     42.75907   -8714.0086   -3949.1457 
   79200    325.07413   -8675.1357    46.511243    -8721.647    21560.928 
   79400    316.16106   -8677.1578    45.235971   -8722.3938   -18946.232 
   79600    406.57318   -8662.9878    58.172036   -8721.1599    29385.156 
   79800    292.01145   -8671.9011    41.780672   -8713.6818   -428.93798 
   80000    288.60437   -8676.7762     41.29319   -8718.0694    8022.9596 
   80200    274.61744   -8688.3738    39.291957   -8727.6657   -2134.2956 
   80400    268.78334   -8681.7562    38.457219   -8720.2134   -22143.426 
   80600    322.53717   -8673.1761    46.148258   -8719.3243   -53646.109 
   80800    254.63674   -8679.0486     36.43314   -8715.4817   -39216.784 
   81000    236.95138   -8687.1279    33.902738   -8721.0306    15804.031 
   81200    240.97813   -8673.0305    34.478881   -8707.5093   -4741.9447 
   81400    286.44343   -8676.1948    40.984006   -8717.1788    8457.3128 
   81600    311.36339   -8672.0644    44.549526   -8716.6139    4137.2914 
   81800    284.01922   -8682.9524    40.637153   -8723.5895    2321.5983 
   82000    346.42782   -8666.7017    49.566506   -8716.2682    -2029.522 
   82200    304.39703   -8674.9631    43.552788   -8718.5159    16928.467 
   82400    291.96285   -8678.4366    41.773718   -8720.2103   -8485.7808 
   82600    290.33815   -8676.8294    41.541258   -8718.3707    22312.924 
   82800    334.35225   -8672.8205    47.838746   -8720.6592   -19620.277 
   83000    284.97727   -8679.2012     40.77423   -8719.9755   -35473.162 
   83200    293.83883   -8679.7842    42.042131   -8721.8263   -12733.947 
   83400    373.23049   -8669.2457    53.401402   -8722.6471   -28879.985 
   83600    241.53916   -8686.1978    34.559153    -8720.757   -8132.9983 
   83800    315.71719   -8681.2677    45.172463   -8726.4402   -154.36318 
   84000    303.71847   -8664.4007      43.4557   -8707.8564    8902.0046 
   84200    280.17343   -8681.5865    40.086901   -8721.6734   -4514.9739 
   84400    281.57215   -8678.9608    40.287029   -8719.2478    73519.678 
   84600    345.59173   -8668.8294    49.446878   -8718.2763   -34042.927 
   84800    350.38514   -8662.6049    50.132714   -8712.7377   -24985.544 
   85000    314.62945   -8679.8513     45.01683   -8724.8682   -5286.1875 
   85200    280.80905   -8677.4218    40.177846   -8717.5997   -29638.178 
   85400    306.05225   -8670.4723    43.789614   -8714.2619    22699.559 
   85600    232.32821   -8685.0821    33.241261   -8718.3234    4682.2398 
   85800    325.94474   -8680.8563     46.63581   -8727.4921    26153.177 
   86000    278.38155   -8677.4699    39.830521   -8717.3004   -25190.947 
   86200    332.91042   -8666.0048    47.632451   -8713.6372    4067.2369 
   86400    288.46612   -8679.8392    41.273411   -8721.1126    9134.3525 
   86600    276.70699   -8678.8073    39.590927   -8718.3983    18508.314 
   86800    302.00781   -8672.3874     43.21094   -8715.5984   -5365.1901 
   87000    311.88014   -8669.0671    44.623462   -8713.6905   -25204.943 
   87200    280.80503   -8682.7565     40.17727   -8722.9338   -46207.297 
   87400    271.95181   -8681.9863    38.910561   -8720.8969    28406.632 
   87600    362.28458   -8665.9864    51.835273   -8717.8216    22675.824 
   87800    308.19933   -8681.1794    44.096816   -8725.2762   -4216.0188 
   88000    293.55312    -8680.783    42.001252   -8722.7842   -21247.383 
   88200    383.57902     -8662.64    54.882058   -8717.5221   -5278.9425 
   88400    284.40513   -8674.1306    40.692368   -8714.8229   -19415.473 
   88600     285.5787   -8681.5233    40.860281   -8722.3836    -24968.33 
   88800    249.65123   -8685.0593    35.719819   -8720.7791   -15413.602 
   89000    355.59985   -8667.7979    50.878829   -8718.6768   -19098.317 
   89200    264.96987    -8683.993    37.911593   -8721.9046   -20058.404 
   89400    272.64163   -8678.4357     39.00926    -8717.445   -31250.647 
   89600    313.29241   -8673.6426    44.825528   -8718.4681   -56321.517 
   89800    318.08003   -8673.7332    45.510535   -8719.2437    25148.524 
   90000    305.41371   -8679.5927    43.698253   -8723.2909     -58583.2 
   90200    257.75813   -8688.5531    36.879745   -8725.4329    -50279.81 
   90400    315.48328   -8670.4648    45.138994   -8715.6038    24491.639 
   90600    299.00255   -8679.2086    42.780951   -8721.9896   -13800.018 
   90800    236.00997   -8690.8526    33.768042   -8724.6207   -23319.838 
   91000    312.74852   -8677.2325    44.747709   -8721.9802   -1498.6929 
   91200    283.47275   -8672.2028    40.558964   -8712.7617   -18401.577 
   91400    303.13381   -8686.6564    43.372046   -8730.0284   -17.712943 
   91600    288.72303   -8678.3546    41.310169   -8719.6648   -26093.775 
   91800    312.62151   -8672.0014    44.729536   -8716.7309    7447.0484 
   92000    323.73045   -8673.8883    46.318991   -8720.2073   -19582.115 
   92200    287.78819   -8676.1062    41.176413   -8717.2826   -19615.882 
   92400    276.92956   -8678.6283    39.622772    -8718.251    41885.723 
   92600    316.03191   -8671.5337    45.217492   -8716.7511   -7221.6163 
   92800    275.87151   -8682.7622    39.471387   -8722.2336    14155.607 
   93000    278.60293   -8675.8137    39.862196   -8715.6759    25068.222 
   93200    272.77007   -8676.7095    39.027637   -8715.7371    15342.367 
   93400    251.27001   -8685.6509    35.951432   -8721.6023   -11305.562 
   93600    328.53708    -8668.017    47.006718   -8715.0237    64.029414 
   93800     311.5769   -8681.9297    44.580075   -8726.5098     12569.78 
   94000    317.39232   -8679.4668    45.412138    -8724.879    10237.951 
   94200    346.81999   -8675.8029    49.622616   -8725.4255    5049.7985 
   94400    277.72398   -8682.5689    39.736436   -8722.3053   -23349.626 
   94600    360.96612     -8673.13     51.64663   -8724.7766   -8433.2121 
   94800    273.35158   -8679.3218    39.110839   -8718.4326    4112.2049 
   95000    317.35825   -8683.9037    45.407263    -8729.311    20433.042 
   95200    351.33069   -8668.8172    50.268002   -8719.0852    18719.464 
   95400    265.50923   -8680.2042    37.988764   -8718.1929    47361.797 
   95600    262.36885   -8692.0373    37.539442   -8729.5767   -30333.787 
   95800     301.9884   -8676.9456    43.208163   -8720.1538   -20247.704 
   96000    261.07036   -8674.8634    37.353656   -8712.2171    78023.855 
   96200    267.12242   -8689.1317    38.219577   -8727.3513   -17422.747 
   96400    314.11895   -8681.9764    44.943789   -8726.9202   -27357.061 
   96600    345.86664   -8675.0591    49.486212   -8724.5454    21768.298 
   96800    328.27836   -8679.1392    46.969701   -8726.1089    51115.746 
   97000    270.54603   -8693.3796    38.709424    -8732.089    12001.095 
   97200    300.76165   -8680.5525     43.03264   -8723.5852   -45206.857 
   97400    363.59034   -8671.0769    52.022099    -8723.099    24051.339 
   97600     336.2108   -8667.0666    48.104666   -8715.1713    11675.345 
   97800    308.09693   -8682.8219    44.082165   -8726.9041    -45189.13 
   98000    345.86126   -8676.9955    49.485442    -8726.481   -8047.7436 
   98200    314.45984   -8663.1267    44.992562   -8708.1193   -24720.205 
   98400     371.1569   -8677.8303    53.104715    -8730.935    15712.163 
   98600    280.94794   -8685.9879    40.197717   -8726.1856   -11612.653 
   98800    297.34036   -8668.1619    42.543126    -8710.705    16698.293 
   99000    297.71576   -8676.0391    42.596839   -8718.6359   -23231.583 
   99200    302.34141   -8678.9731    43.258672   -8722.2318     7953.419 
   99400    323.81488   -8669.5242    46.331072   -8715.8553   -35833.407 
   99600    254.93092   -8689.2856    36.475231   -8725.7608   -16471.422 
   99800    293.97142   -8676.8019    42.061103    -8718.863    21054.606 
  100000    280.94445   -8670.5116    40.197217   -8710.7088     26391.69 
  100200    234.11635   -8685.1325    33.497106   -8718.6296    11790.013 
  100400    271.05639   -8681.3159    38.782446   -8720.0984   -2153.4639 
  100600    243.26069   -8681.0886    34.805468   -8715.8941    18914.555 
  100800    368.32724    -8664.059     52.69985   -8716.7588   -13944.184 
  101000    268.93855   -8676.3693    38.479427   -8714.8487    23280.805 
  101200    301.22439   -8678.3776     43.09885   -8721.4764   -2355.2162 
  101400    283.71973   -8680.4527    40.594301    -8721.047   -22605.338 
  101600    322.41083    -8672.815    46.130181   -8718.9452   -30820.268 
  101800    275.79054   -8685.4912    39.459802    -8724.951   -9545.0818 
  102000    338.77264   -8669.7649     48.47121   -8718.2361    46845.341 
  102200    233.50928   -8681.0707    33.410247   -8714.4809    6037.5684 
  102400    316.50602   -8682.8763    45.285327   -8728.1616   -23251.694 
  102600    262.98003   -8680.9773    37.626888   -8718.6042   -50645.614 
  102800    327.58521   -8667.1169    46.870526   -8713.9874    -38288.21 
  103000    290.47167   -8682.3862    41.560362   -8723.9466     24472.49 
  103200    270.09931    -8679.898    38.645507   -8718.5435    30175.594 
  103400    418.55203   -8660.5192    59.885957   -8720.4051    30311.416 
  103600    294.83317   -8665.8141      42.1844   -8707.9985   -37698.751 
  103800    286.00394   -8680.7138    40.921124   -8721.6349   -13867.777 
  104000    297.71414   -8674.5993    42.596607   -8717.1959     7879.865 
  104200    305.57841   -8670.7026    43.721817   -8714.4244    16088.552 
  104400    268.97876   -8683.3729     38.48518   -8721.8581   -1968.1691 
  104600    316.69971   -8673.3221     45.31304   -8718.6352    16753.869 
  104800    268.58444   -8676.4438    38.428761   -8714.8725    16224.664 
  105000    301.79502   -8683.4913    43.180494   -8726.6718   -21265.112 
  105200    330.41828   -8680.3267    47.275878   -8727.6026    24484.637 
  105400    302.11407   -8665.9264    43.226144   -8709.1525    27963.229 
  105600    297.33722   -8670.6936    42.542677   -8713.2362    5205.1993 
  105800    286.42168   -8682.8661    40.980893    -8723.847   -15813.994 
  106000    303.10865   -8670.7024    43.368447   -8714.0708   -4082.4427 
  106200    343.30408   -8665.7503    49.119565   -8714.8698    17787.517 
  106400     351.5447   -8673.3608    50.298623   -8723.6595    12746.661 
  106600    300.29544   -8684.2093    42.965935   -8727.1752    53.155879 
  106800    285.42624   -8690.1401    40.838467   -8730.9786    44002.115 
  107000    316.52171   -8676.7331    45.287573   -8722.0207    48859.629 
  107200    357.46495   -8670.1203    51.145686    -8721.266    5901.8355 
  107400     268.0809   -8685.2122    38.356715   -8723.5689   -495.53473 
  107600    311.92684   -8677.5259    44.630144    -8722.156   -24556.354 
  107800    302.60042   -8673.2237     43.29573   -8716.5194    21765.756 
  108000    262.37651   -8686.2219    37.540538   -8723.7624    10541.945 
  108200    307.95359   -8669.2987    44.061655   -8713.3604   -18225.887 
  108400    246.88581   -8677.5705    35.324146   -8712.8946   -6085.3864 
  108600    214.52619   -8687.2157    30.694168   -8717.9099   -6590.2297 
  108800    285.79767   -8670.0273    40.891611   -8710.9189   -17120.407 
  109000    288.18999   -8675.2105    41.233901   -8716.4444    14737.337 
  109200    292.45264   -8681.0165    41.843797   -8722.8603    37937.936 
  109400    325.52383   -8671.6189    46.575586   -8718.1945    4806.1857 
  109600    324.61975   -8658.7105    46.446231   -8705.1567   -13472.665 
  109800    318.30671   -8675.6001    45.542969   -8721.1431   -26618.781 
  110000    256.00343   -8681.6887    36.628685   -8718.3174    -7562.172 
  110200    306.93379   -8673.9547    43.915744   -8717.8705    9443.3945 
  110400    349.77151   -8672.5134    50.044917   -8722.5583   -27010.752 
  110600    270.44574   -8684.6707    38.695075   -8723.3658    38822.986 
  110800    328.07692   -8673.9536    46.940879   -8720.8945    39340.801 
  111000    275.56833   -8680.2187    39.428009   -8719.6467    15621.884 
  111200    262.06044   -8684.3674    37.495314   -8721.8628    25095.993 
  111400    294.46202   -8673.8548    42.131296   -8715.9861    48454.016 
  111600    285.44905   -8681.6178    40.841731   -8722.4595   -15540.542 
  111800    241.00364   -8696.4652    34.482531   -8730.9477   -5208.4155 
  112000    278.58388   -8680.6143    39.859471   -8720.4738      34004.4 
  112200    314.69206   -8669.9965    45.025788   -8715.0223    39036.541 
  112400    314.49688   -8677.0445    44.997862   -8722.0423    1762.6531 
  112600    294.99797   -8684.3274    42.207979   -8726.5354   -3468.9879 
  112800    331.22122     -8666.34    47.390762   -8713.7308    -4069.657 
  113000    291.31743   -8673.3772    41.681373   -8715.0586    21926.287 
  113200    283.87442   -8683.6484    40.616434   -8724.2649    30181.688 
  113400    327.02884   -8664.6813    46.790921   -8711.4722   -35191.775 
  113600    314.57797   -8675.2436    45.009464    -8720.253   -13243.584 
  113800    338.15244   -8677.6555    48.382474    -8726.038    16963.058 
  114000    362.58692   -8666.2676    51.878531   -8718.1461    61060.811 
  114200    318.22401   -8670.3754    45.531136   -8715.9065    12345.501 
  114400    290.33331   -8681.7605    41.540566   -8723.3011     13745.78 
  114600    339.31579   -8673.0108    48.548924   -8721.5597   -1953.7045 
  114800    286.57153   -8668.7692    41.002335   -8709.7716     30649.68 
  115000    301.29291   -8681.2847    43.108653   -8724.3933    -13193.27 
  115200    336.90111   -8677.5451    48.203434   -8725.7485    9231.4969 
  115400    333.60131   -8669.0638    47.731303   -8716.7952   -28260.365 
  115600    299.51173   -8674.3979    42.853803   -8717.2517    8837.1197 
  115800    259.50216   -8682.3188    37.129278   -8719.4481   -17448.743 
  116000    303.95007    -8678.052    43.488837   -8721.5408    2434.3758 
  116200     287.6589   -8674.7481    41.157914    -8715.906   -4438.4624 
  116400    340.33212   -8666.1424     48.69434   -8714.8367   -19314.314 
  116600    360.02145    -8667.033    51.511467   -8718.5445    2156.2188 
  116800    321.53974   -8680.1114    46.005547   -8726.1169    2944.5021 
  117000     352.2296   -8668.7325    50.396617   -8719.1291   -3518.1619 
  117200    350.95621   -8671.0918    50.214423   -8721.3063   -33764.367 
  117400    266.95338   -8682.7339    38.195392   -8720.9293    15342.639 
  117600    327.94704   -8667.8806    46.922296   -8714.8029   -11498.661 
  117800    240.77072   -8683.9615    34.449206   -8718.4108   -15375.588 
  118000    288.09551   -8681.4832    41.220383   -8722.7036   -14086.454 
  118200    365.10206   -8666.6303    52.238394   -8718.8687    4761.3825 
  118400     316.3443   -8672.9245    45.262189   -8718.1867    2749.3849 
  118600    332.61023   -8679.1506      47.5895   -8726.7401    54358.838 
  118800    238.62904   -8692.4298    34.142777   -8726.5726   -8252.2115 
  119000    305.98543   -8679.6148    43.780053   -8723.3949    15506.477 
  119200    332.82855   -8674.4174    47.620737   -8722.0381    36944.739 
  119400    263.62214   -8689.5763    37.718761   -8727.2951   -10217.607 
  119600    228.97865   -8688.9726    32.762009   -8721.7346    27073.663 
  119800    300.85744   -8676.2295    43.046347   -8719.2759    56668.647 
  120000    262.35349   -8671.3575    37.537244   -8708.8948   -7669.2362 
  120200    331.17173   -8664.0933    47.383681    -8711.477    36619.196 
  120400    332.69196   -8680.1573    47.601194   -8727.7585    -2943.473 
  120600    295.16725   -8673.7227    42.232201   -8715.9549   -782.09081 
  120800    294.27702   -8671.1951    42.104827   -8713.2999    -31036.72 
  121000    253.98904   -8685.0125    36.340468   -8721.3529    11201.597 
  121200    337.91989    -8667.613      48.3492   -8715.9622   -5454.8539 
  121400    307.16832   -8672.7454      43.9493   -8716.6947   -8861.0379 
  121600    306.07273   -8673.6453    43.792544   -8717.4378    48454.925 
  121800    276.25446   -8686.7458    39.526179    -8726.272     20378.43 
  122000    277.62334    -8686.122    39.722038   -8725.8441   -34594.859 
  122200    306.93744   -8671.8099    43.916266   -8715.7262    11828.018 
  122400    285.34729    -8681.956    40.827171   -8722.7832    2902.0301 
  122600    265.68086   -8684.1288     38.01332   -8722.1421    34361.544 
  122800    365.41558   -8666.8381    52.283252   -8719.1213   -17594.047 
  123000      319.038   -8682.7067      45.6476   -8728.3543   -3811.9496 
  123200    258.27549   -8684.5022    36.953769    -8721.456   -26198.491 
  123400     251.4291   -8677.1564    35.974195   -8713.1306    46731.334 
  123600    319.92968   -8670.8283    45.775182   -8716.6035    8731.5623 
  123800    302.32627   -8678.3118    43.256505   -8721.5683   -3267.0929 
  124000    233.45797   -8685.7275    33.402905   -8719.1304   -27396.072 
  124200    330.55931   -8667.4569    47.296057   -8714.7529   -15056.532 
  124400    277.54427   -8676.5594    39.710723   -8716.2702    18812.302 
  124600    277.06384   -8679.5944    39.641984   -8719.2364   -2620.4523 
  124800    352.08769   -8672.9706    50.376313   -8723.3469   -6264.9753 
  125000    363.18438   -8663.5331    51.964015   -8715.4972   -11798.719 
  125200    307.05129   -8677.7602    43.932556   -8721.6928    27412.946 
  125400    328.50898   -8682.6773    47.002698     -8729.68   -14386.094 
  125600     338.7023    -8671.986    48.461146   -8720.4471    2948.1284 
  125800    313.73608   -8675.1099    44.889007   -8719.9989   -38069.587 
  126000    260.21725   -8684.9762    37.231593   -8722.2078    25784.652 
  126200    337.80678   -8665.3591    48.333016   -8713.6922   -43239.645 
  126400    352.21496   -8678.6143    50.394523   -8729.0089   -26997.818 
  126600    288.04486   -8685.8981    41.213137   -8727.1112    57595.365 
  126800    261.73961   -8669.4377     37.44941   -8706.8871    22649.267 
  127000    239.80206   -8679.3777     34.31061   -8713.6883   -47726.915 
  127200    263.67112   -8679.6474     37.72577   -8717.3732   -143.84006 
  127400    312.88083    -8673.841    44.766639   -8718.6077    14771.662 
  127600     303.7015   -8676.8033    43.453271   -8720.2565   -24337.826 
  127800    285.55956   -8679.3344    40.857543   -8720.1919   -39071.843 
  128000     262.7606   -8678.1945    37.595493     -8715.79      30557.5 
  128200     335.8718   -8668.4708    48.056162    -8716.527   -35547.276 
  128400    250.79956   -8685.5701    35.884121   -8721.4542   -14135.994 
  128600    363.58708   -8668.4282    52.021633   -8720.4499    18265.863 
  128800    299.14829    -8668.926    42.801803   -8711.7278    33918.101 
  129000    319.87135   -8681.1224    45.766835   -8726.8892   -13659.006 
  129200    290.11278   -8683.6955    41.509012   -8725.2045   -16630.522 
  129400    327.17675   -8669.9377    46.812084   -8716.7498   -28275.776 
  129600    306.10681   -8681.2656    43.797421    -8725.063    15514.304 
  129800    349.29932   -8672.4102    49.977357   -8722.3876    21617.722 
  130000    328.44965   -8672.6834    46.994209   -8719.6776    565.76256 
  130200    272.64427   -8686.7909    39.009637   -8725.8005    9873.8936 
  130400    313.45534   -8666.8966    44.848839   -8711.7454    11418.454 
  130600    357.13335   -8670.3337    51.098241    -8721.432   -11335.395 
  130800    277.89426   -8680.8182      39.7608    -8720.579   -366.22852 
  131000    267.36557   -8674.7262    38.254366   -8712.9805   -17270.512 
  131200    405.40026   -8647.7432    58.004216   -8705.7474   -1676.3208 
  131400    355.48611   -8662.7989    50.862555   -8713.6614   -17096.606 
  131600    262.78551    -8682.754    37.599057   -8720.3531    33742.052 
  131800    322.14096   -8675.1429    46.091568   -8721.2345   -14108.325 
  132000    321.74734   -8678.0139    46.035249   -8724.0492    49060.263 
  132200    337.05338   -8666.5987     48.22522    -8714.824    -8121.873 
  132400    289.27034   -8674.8308    41.388477   -8716.2193   -19453.696 
  132600    291.38661   -8681.2309    41.691271   -8722.9221   -15791.353 
  132800    327.84834   -8665.0133    46.908174   -8711.9215    2686.9402 
  133000    251.95826   -8682.8463    36.049907   -8718.8962     4718.513 
  133200    260.60944   -8683.5574    37.287707   -8720.8451   -11453.477 
  133400    304.42424   -8668.9412    43.556679   -8712.4979   -60549.263 
  133600    273.24396   -8684.9328     39.09544   -8724.0283    2305.1199 
  133800    266.78894   -8682.0748    38.171863   -8720.2466     29905.82 
  134000    327.90516   -8670.3577    46.916304    -8717.274   -49763.434 
  134200    316.95244   -8679.2659    45.349201   -8724.6151    19174.886 
  134400    268.90335   -8687.2037    38.474391   -8725.6781    41920.246 
  134600    339.88219   -8669.6406    48.629963   -8718.2706    5618.2285 
  134800    296.51345   -8673.4388    42.424813   -8715.8636   -25139.495 
  135000    258.74187   -8688.1019    37.020497   -8725.1224   -6650.2838 
  135200    324.31326   -8670.3435    46.402379   -8716.7459   -24295.223 
  135400    350.15423    -8670.485    50.099676   -8720.5846     17796.09 
  135600    298.33249   -8678.9326    42.685079   -8721.6177   -11352.878 
  135800     340.9801   -8671.3151    48.787051   -8720.1021    -1706.493 
  136000    287.78396    -8676.163    41.175807   -8717.3388   -16397.325 
  136200    290.07139   -8689.3488     41.50309   -8730.8519   -42388.487 
  136400     260.7162   -8684.7493    37.302982   -8722.0523    16302.403 
  136600    334.51809   -8671.5892    47.862475   -8719.4516   -34572.516 
  136800    294.74011   -8680.0195    42.171085   -8722.1906    2676.3703 
  137000     319.8926   -8675.8602    45.769876     -8721.63   -15956.951 
  137200    271.30624   -8672.4249    38.818193   -8711.2431   -13189.386 
  137400    315.07588    -8671.459    45.080705   -8716.5397    9210.1085 
  137600    228.57152   -8684.9476    32.703757   -8717.6514   -36512.995 
  137800    360.55773   -8668.8084    51.588197   -8720.3966    2189.2406 
  138000    266.45188   -8683.4543    38.123637   -8721.5779   -8072.3517 
  138200    303.14358   -8675.5061    43.373444   -8718.8795    9479.3711 
  138400    268.28328   -8684.4691    38.385672   -8722.8547   -5354.1815 
  138600    333.42533   -8675.1119    47.706123    -8722.818    9718.6466 
  138800    273.91538   -8670.1486    39.191507   -8709.3401   -27860.011 
  139000    287.18375    -8685.725     41.08993   -8726.8149    17048.218 
  139200    252.11463   -8686.8326     36.07228   -8722.9049   -9351.1606 
  139400    350.25881    -8674.342     50.11464   -8724.4567   -13954.615 
  139600    217.51753   -8682.5578    31.122165     -8713.68    34924.624 
  139800    295.42581   -8683.7613    42.269195   -8726.0305    17016.558 
  140000     305.2406   -8668.9575    43.673484    -8712.631    51216.146 
  140200    292.54658   -8662.8008    41.857238   -8704.6581   -9532.8893 
  140400    237.80407   -8686.3091     34.02474   -8720.3339    52995.403 
  140600    324.33614   -8675.3725    46.405653   -8721.7781   -17949.972 
  140800    266.55087   -8673.6338      38.1378   -8711.7716    -779.5408 
  141000    294.46151   -8684.2644    42.131223   -8726.3956    17840.279 
  141200    301.70662   -8688.0077    43.167846   -8731.1755   -14475.689 
  141400    327.58297   -8674.5777    46.870206   -8721.4479    5928.6052 
  141600    297.35343   -8674.3729    42.544996   -8716.9179    48840.778 
  141800    253.80461   -8689.2474     36.31408   -8725.5615    28666.739 
  142000    351.81212   -8671.0943    50.336885   -8721.4312    8304.3404 
  142200    335.21921   -8671.4634     47.96279   -8719.4262    19957.045 
  142400    255.32371   -8685.8059     36.53143   -8722.3374   -25976.429 
  142600    258.02569   -8681.7201    36.918027   -8718.6381   -2511.2947 
  142800    276.75196   -8670.6495    39.597362   -8710.2469   -15597.512 
  143000    254.63181   -8684.1661    36.432435   -8720.5985    33864.635 
  143200    284.00774   -8683.0622     40.63551   -8723.6977    32875.177 
  143400    349.33669   -8665.6338    49.982703   -8715.6165   -37444.169 
  143600    334.05089   -8678.6341    47.795628   -8726.4298   -5690.0381 
  143800    335.90325   -8676.1516    48.060662   -8724.2122   -14061.762 
  144000    396.95647    -8663.544    56.796088   -8720.3401    15195.234 
  144200    262.89072    -8676.845     37.61411   -8714.4591   -20825.952 
  144400    293.48763   -8678.9437    41.991882   -8720.9356    44532.828 
  144600    244.72903   -8691.3821    35.015557   -8726.3977    2891.6319 
  144800    293.10458   -8678.1032    41.937076   -8720.0403    10785.881 
  145000    321.66439    -8671.801    46.023382   -8717.8243    45261.394 
  145200    253.07849   -8688.6799    36.210188   -8724.8901   -3994.0948 
  145400    290.09967   -8676.9627    41.507137   -8718.4699    31805.147 
  145600    350.21641     -8668.49    50.108572   -8718.5986   -8252.3635 
  145800    313.62064    -8681.534    44.872491   -8726.4065   -25952.932 
  146000    285.63827   -8687.9329    40.868805   -8728.8017    -14876.17 
  146200     310.1483   -8680.5693    44.375673   -8724.9449    11362.329 
  146400    340.30233   -8669.7959    48.690078   -8718.4859    32100.725 
  146600    256.16918   -8677.9503      36.6524   -8714.6027    3290.4409 
  146800    257.38828   -8681.4619    36.826827   -8718.2887    -1971.488 
  147000    264.05884   -8670.7002    37.781243   -8708.4814    16291.935 
  147200    267.47051   -8678.8145    38.269382   -8717.0839   -35120.486 
  147400    258.00739   -8684.2796    36.915409    -8721.195    9859.8282 
  147600     297.0592   -8676.3382    42.502898   -8718.8411    33121.868 
  147800    316.12709   -8671.0704     45.23111   -8716.3015    1981.8045 
  148000    264.98182   -8681.0205    37.913303   -8718.9338    44582.829 
  148200    301.36286   -8674.4355    43.118661   -8717.5541    14432.385 
  148400    330.50462   -8667.3792    47.288232   -8714.6675   -21545.385 
  148600     313.4333   -8672.3746    44.845687   -8717.2203   -3916.1585 
  148800    230.26784   -8689.8432    32.946465   -8722.7897   -32291.381 
  149000    311.66331   -8678.8908    44.592438   -8723.4833    2889.7972 
  149200    293.65096   -8676.7978    42.015251    -8718.813   -3188.4233 
  149400    271.46681   -8682.9467    38.841168   -8721.7878    42197.715 
  149600    266.37072   -8691.9302    38.112025   -8730.0422    12345.486 
  149800    294.68482   -8674.2718    42.163174    -8716.435    32789.271 
  150000    284.79935   -8669.3887    40.748773   -8710.1375   -9836.8866 
  150200    237.58053   -8687.7534    33.992757   -8721.7462    6914.7284 
  150400    302.41833    -8680.347    43.269677   -8723.6166   -40531.049 
  150600    308.53642   -8677.2277    44.145047   -8721.3728    13371.766 
  150800    443.92193   -8655.3825    63.515854   -8718.8984    19053.774 
  151000    256.40316   -8676.7821    36.685877    -8713.468   -53639.196 
  151200    257.38016   -8674.2354    36.825666    -8711.061     4053.714 
  151400    283.76513   -8666.8974    40.600797   -8707.4981    67437.644 
  151600    270.32601   -8685.4057    38.677943   -8724.0836    -11069.25 
  151800    320.56205   -8678.6052     45.86566   -8724.4708    8109.4399 
  152000    376.82196   -8659.8773    53.915265   -8713.7926   -15497.147 
  152200    329.99873   -8672.0037     47.21585   -8719.2196   -5093.2732 
  152400    239.09244   -8679.3463    34.209079   -8713.5554    20444.917 
  152600    351.28091    -8665.853     50.26088   -8716.1139   -38327.664 
  152800     323.6716   -8669.3563    46.310571   -8715.6668   -48356.346 
  153000    298.69361   -8681.2448    42.736748   -8723.9816    3546.0207 
  153200    292.54848   -8672.5032     41.85751   -8714.3607   -3685.0898 
  153400    305.92972    -8665.268    43.772083   -8709.0401    14032.486 
  153600    307.25287      -8676.8    43.961397   -8720.7614   -459.90871 
  153800    309.40396   -8684.4646    44.269173   -8728.7338    8636.0234 
  154000    327.76011   -8672.6609    46.895551   -8719.5565   -2526.3251 
  154200    324.75152   -8674.3408    46.465085   -8720.8059    23070.195 
  154400    305.86515   -8686.6931    43.762844   -8730.4559    7994.4831 
  154600     281.2479    -8670.433    40.240635   -8710.6736    -137.0633 
  154800     286.5682    -8673.603    41.001858   -8714.6048   -17291.829 
  155000    272.72999   -8686.2637    39.021903   -8725.2856   -20626.208 
  155200    351.52063    -8673.681    50.295178   -8723.9762   -7480.4789 
  155400    310.68082   -8671.1306    44.451864   -8715.5825    11489.375 
  155600    285.15746   -8676.7159     40.80001   -8717.5159   -36000.065 
  155800    273.47761   -8693.6913    39.128871   -8732.8202   -17172.868 
  156000    298.17278    -8680.817    42.662228   -8723.4792   -528.32811 
  156200    314.91744   -8675.6762    45.058035   -8720.7342   -22192.404 
  156400    365.65586   -8660.2147    52.317632   -8712.5323    18315.283 
  156600     257.7081   -8673.6637    36.872587   -8710.5362   -18235.039 
  156800    274.84027   -8678.0093    39.323839   -8717.3332   -19604.765 
  157000    324.35192   -8664.7549     46.40791   -8711.1628   -20243.897 
  157200    241.41387   -8685.8618    34.541227    -8720.403   -5070.2422 
  157400     288.7499   -8675.5937    41.314014   -8716.9078    28183.692 
  157600    269.78306   -8677.6984    38.600259   -8716.2987   -7589.9968 
  157800    248.13411    -8686.012    35.502751   -8721.5147   -40776.645 
  158000    315.98633   -8672.2575    45.210971   -8717.4684    56853.647 
  158200     319.3945   -8666.1419    45.698608   -8711.8405   -24189.252 
  158400    305.59502   -8681.0544    43.724194   -8724.7786   -40714.601 
  158600    302.45987   -8678.2361     43.27562   -8721.5117     25566.68 
  158800    293.06169   -8680.1689    41.930939   -8722.0998    16058.286 
  159000    298.65801   -8685.4498    42.731655   -8728.1815   -6025.5817 
  159200    321.28255   -8671.5273    45.968748    -8717.496   -42773.265 
  159400    296.28562   -8675.9681    42.392215   -8718.3603   -205.07637 
  159600    269.25241   -8689.7797    38.524335    -8728.304   -29553.155 
  159800    295.97095   -8673.3938    42.347192    -8715.741   -3954.3731 
  160000     309.3003   -8678.1966    44.254341    -8722.451    350.70439 
  160200    254.37472   -8688.6156    36.395651   -8725.0112    18244.414 
  160400    337.76035     -8669.45    48.326373   -8717.7764   -6188.8889 
  160600    304.19879   -8681.6436    43.524422    -8725.168    20131.145 
  160800    260.99896   -8686.3007     37.34344   -8723.6441    27774.337 
  161000    341.15348    -8666.304    48.811859   -8715.1159   -8298.9241 
  161200    275.39453   -8676.1773    39.403141   -8715.5805    6493.1209 
  161400    263.63901   -8678.5198    37.721176    -8716.241   -38708.875 
  161600    250.61462   -8686.9178    35.857659   -8722.7754    1135.8735 
  161800    317.26271   -8676.0605    45.393594   -8721.4541   -9235.8796 
  162000    268.06835   -8682.4633    38.354919   -8720.8182   -8539.6016 
  162200    275.28055   -8684.0648    39.386833   -8723.4516   -23511.307 
  162400    291.18472   -8676.2837    41.662385   -8717.9461    45600.121 
  162600    283.08088   -8673.4984    40.502896   -8714.0013   -10951.712 
  162800    270.17548   -8688.8394    38.656406   -8727.4958    17242.106 
  163000    359.37603   -8676.6782    51.419121   -8728.0973    5610.1193 
  163200    282.53872   -8671.5759    40.425324   -8712.0012    19385.787 
  163400    246.03795   -8679.8216    35.202835   -8715.0244   -2001.8416 
  163600    302.21632   -8677.2871    43.240773   -8720.5278   -60650.249 
  163800     363.4318   -8663.1275    51.999416   -8715.1269    27305.735 
  164000     348.9533   -8676.2869    49.927849   -8726.2147   -3192.2073 
  164200    317.27688   -8676.5952    45.395621   -8721.9908    30570.105 
  164400    307.91719   -8692.1099    44.056447   -8736.1664    5335.6868 
  164600    275.96736   -8678.5966    39.485101   -8718.0817   -24637.836 
  164800    355.10657   -8664.6472    50.808251   -8715.4555   -10551.449 
  165000    332.07536   -8681.5515    47.512972   -8729.0645    16756.753 
  165200    282.51146   -8681.9275    40.421424   -8722.3489    3901.6963 
  165400    358.75324   -8670.4753    51.330012   -8721.8053    25901.093 
  165600    255.41718   -8683.5948    36.544805   -8720.1396    4683.3552 
  165800    308.01439   -8674.8096    44.070355     -8718.88    18534.413 
  166000    334.10337   -8667.2649    47.803136    -8715.068   -25415.465 
  166200    285.15294   -8681.8959    40.799365   -8722.6953    790.38125 
  166400    277.41578   -8682.8574     39.69234   -8722.5498   -17692.205 
  166600    253.55674   -8676.7113    36.278615   -8712.9899   -24377.657 
  166800    311.00471   -8680.3871    44.498206   -8724.8853   -5685.3816 
  167000    293.21848    -8676.785    41.953373   -8718.7384   -23201.749 
  167200    355.81246   -8664.2443     50.90925   -8715.1536   -11486.819 
  167400    253.40044   -8678.0397    36.256251    -8714.296    23479.497 
  167600    285.90897   -8683.5788    40.907536   -8724.4863    34833.362 
  167800    276.65969   -8688.1804    39.584159   -8727.7645   -22129.339 
  168000    319.82993   -8675.2807    45.760909   -8721.0416    -18096.18 
  168200     325.9037   -8680.4666    46.629937   -8727.0966   -42738.758 
  168400    316.83534   -8678.6202    45.332446   -8723.9527   -11222.995 
  168600    333.69354   -8665.8213    47.744499   -8713.5658    68423.027 
  168800    271.60804   -8683.3087    38.861374   -8722.1701   -16050.378 
  169000    307.57413   -8677.3276    44.007362    -8721.335    -30178.38 
  169200    292.90834   -8669.0984    41.908998   -8711.0074    15823.135 
  169400    319.10459   -8674.8433    45.657128   -8720.5004    4305.0384 
  169600    278.65346   -8685.1405    39.869426   -8725.0099   -18385.309 
  169800    262.77887   -8684.0318    37.598106   -8721.6299   -32172.372 
  170000     318.1879   -8667.9039    45.525969   -8713.4299    18452.033 
  170200    277.90874   -8683.0815    39.762872   -8722.8444   -28697.598 
  170400    235.67603   -8679.9035    33.720263   -8713.6238    -8253.385 
  170600    274.34154   -8673.0274    39.252481   -8712.2799    80423.823 
  170800    232.53056   -8687.6393    33.270213   -8720.9096    13808.418 
  171000     286.7524   -8686.7493    41.028213   -8727.7775   -17377.416 
  171200    297.31114   -8676.6838    42.538945   -8719.2227   -43406.321 
  171400     378.2251   -8664.5584    54.116025   -8718.6744   -2854.8549 
  171600    287.60998   -8676.8769    41.150915   -8718.0278    91212.412 
  171800    267.85835   -8679.8336    38.324873   -8718.1584    34653.177 
  172000    288.95105   -8667.6466    41.342793   -8708.9894   -8630.0062 
  172200    367.24333   -8663.9459    52.544765   -8716.4906    886.37196 
  172400    272.55664   -8682.7257    38.997099   -8721.7228   -18954.315 
  172600    311.45363   -8677.5605    44.562437    -8722.123   -8712.2756 
  172800    325.03167   -8667.0608    46.505168    -8713.566    3182.0031 
  173000    277.52205   -8680.7875    39.707545    -8720.495   -27056.313 
  173200    219.85182   -8699.0277    31.456153   -8730.4838   -5324.9957 
  173400    298.14522   -8680.8175    42.658285   -8723.4758   -25554.943 
  173600     323.8675   -8668.7558      46.3386   -8715.0944    45405.156 
  173800    350.87054   -8674.3406    50.202165   -8724.5427    38963.898 
  174000     251.1684   -8685.7575    35.936893   -8721.6944   -18657.663 
  174200    324.72607   -8671.2383    46.461444   -8717.6997   -1615.0589 
  174400    313.49202    -8678.878    44.854088   -8723.7321   -8235.8496 
  174600    332.44679   -8676.9787    47.566115   -8724.5448    51528.221 
  174800    349.95709   -8666.5414    50.071469   -8716.6128    -44871.57 
  175000     291.7444    -8682.837    41.742462   -8724.5794    4836.1803 
  175200    289.72353   -8680.7757     41.45332    -8722.229    68359.833 
  175400    296.97544   -8679.8294    42.490915   -8722.3203   -39518.342 
  175600    330.58185   -8667.2999    47.299282   -8714.5992    15216.338 
  175800    315.76989   -8671.2703    45.180003   -8716.4503   -19930.281 
  176000    297.06548   -8676.9282    42.503797    -8719.432     27104.92 
  176200    284.98111   -8672.6976    40.774778   -8713.4724    22161.698 
  176400    363.00811   -8665.3384    51.938795   -8717.2772    8495.9753 
  176600    299.09428   -8680.7769    42.794076    -8723.571   -43464.809 
  176800    283.96233   -8670.2288    40.629013   -8710.8578   -31148.823 
  177000    291.48116   -8682.8405    41.704799   -8724.5453    8046.1117 
  177200    308.05332   -8679.3163    44.075925   -8723.3923    3509.9049 
  177400    270.91563   -8675.0196    38.762306   -8713.7819   -4005.8111 
  177600     231.2317   -8689.3461    33.084373   -8722.4304     18231.87 
  177800    291.48377   -8675.3879    41.705172   -8717.0931   -7426.6744 
  178000    264.29716   -8673.3288    37.815342   -8711.1441   -3656.0943 
  178200    277.30268   -8681.2239    39.676158      -8720.9    32678.917 
  178400    269.30691   -8687.3138    38.532132    -8725.846    27207.204 
  178600    316.64107   -8674.0826    45.304651   -8719.3873    39101.937 
  178800    317.81484   -8673.8852    45.472592   -8719.3578   -5581.5694 
  179000    284.68076    -8684.767    40.731805   -8725.4988   -42929.151 
  179200    268.93606   -8679.0881    38.479071   -8717.5671   -24212.962 
  179400     363.0165   -8671.8384    51.939995   -8723.7784    -493.9208 
  179600    271.59998   -8684.7177    38.860222   -8723.5779    5702.0099 
  179800    323.57805   -8674.0928    46.297185     -8720.39    13120.454 
  180000    285.59987   -8674.7744     40.86331   -8715.6377   -19954.906 
  180200    262.76893   -8684.0225    37.596684   -8721.6192   -10284.918 
  180400    317.35729   -8666.8913    45.407127   -8712.2984    21609.651 
  180600    257.87658    -8679.146    36.896693   -8716.0427    8383.3569 
  180800    276.65291   -8681.5856    39.583189   -8721.1688   -40520.418 
  181000    359.01475   -8671.2695    51.367429   -8722.6369    22909.465 
  181200    305.40181   -8681.9875     43.69655    -8725.684    47944.876 
[...]
  950000    316.28016     -8679.35    45.253011    -8724.603    17027.051 
  950200    287.58537   -8679.6148    41.147393   -8720.7622    11161.699 
  950400    333.67525   -8666.5753    47.741881   -8714.3172   -23580.409 
  950600    297.72276   -8679.2787     42.59784   -8721.8765   -9986.5063 
  950800    352.82511   -8676.6662    50.481823    -8727.148    -7936.162 
  951000    326.77712    -8662.645    46.754905   -8709.3999    32568.693 
  951200    296.54136     -8678.68    42.428807   -8721.1088   -12978.172 
  951400    293.54023   -8677.8092    41.999408   -8719.8086   -1830.4692 
  951600    324.94688   -8657.3582    46.493036   -8703.8513    27928.051 
  951800    266.34323   -8675.6498    38.108091   -8713.7579    8082.9353 
  952000    279.41338   -8683.1432    39.978154   -8723.1213    38738.276 
  952200     336.4858   -8667.9162    48.144012   -8716.0602    4615.8168 
  952400    314.69683    -8676.662    45.026471   -8721.6885   -5124.9738 
  952600    333.04719   -8679.5085     47.65202   -8727.1605   -25848.173 
  952800    324.42531   -8662.4076    46.418411    -8708.826    3111.7094 
  953000    352.48258   -8668.1406    50.432814   -8718.5734   -43802.012 
  953200    322.95609   -8680.9947    46.208197   -8727.2029   -22953.264 
  953400    311.96319   -8677.2518    44.635344   -8721.8871    29024.906 
  953600    364.14794   -8669.9605     52.10188   -8722.0624    -36598.16 
  953800    352.11878   -8677.4936    50.380761   -8727.8744    6984.5305 
  954000    324.80221   -8674.7009    46.472337   -8721.1732    1075.3882 
  954200    280.51075   -8662.0152    40.135165   -8702.1504    699.41758 
  954400     280.8899   -8679.0804    40.189413   -8719.2698    44337.057 
  954600    292.62926   -8680.7854    41.869068   -8722.6544    11120.301 
  954800    360.74643   -8660.4912    51.615196   -8712.1064   -3675.1275 
  955000    322.87512   -8675.1433    46.196611   -8721.3399   -33862.502 
  955200    311.86529   -8679.0562    44.621337   -8723.6776    52155.257 
  955400    362.41541   -8671.0495    51.853992   -8722.9035    -44626.15 
  955600    333.74975   -8665.9684    47.752542    -8713.721    6090.5007 
  955800    305.13171   -8680.6661    43.657904    -8724.324    -6734.644 
  956000    275.74983   -8672.9741    39.453977   -8712.4281   -11569.253 
  956200     378.6204   -8663.5219    54.172584   -8717.6945   -25154.759 
  956400    290.95821   -8682.3056    41.629975   -8723.9356     69.69308 
  956600    363.31305   -8669.3171    51.982426   -8721.2995   -1071.3315 
  956800    301.44326   -8682.3988    43.130165    -8725.529    1503.6731 
  957000     289.4735   -8682.7552    41.417546   -8724.1727    53871.318 
  957200    324.31393    -8673.421    46.402475   -8719.8235    30136.672 
  957400    270.42867   -8684.3158    38.692632   -8723.0084   -7857.5417 
  957600      315.641   -8679.6261    45.161562   -8724.7876    20009.712 
  957800    337.86467   -8672.3727    48.341299    -8720.714   -26502.826 
  958000    254.84268   -8684.7141    36.462606   -8721.1767   -47828.633 
  958200    273.86298   -8669.0035     39.18401   -8708.1875   -6453.0255 
  958400    313.93435   -8673.5289    44.917376   -8718.4463    21228.202 
  958600    295.59619   -8680.8854    42.293572   -8723.1789    26002.538 
  958800    311.03768   -8667.8689    44.502923   -8712.3719   -17293.842 
  959000    377.39818   -8662.9906    53.997709   -8716.9884    11313.137 
  959200    292.84033   -8679.3653    41.899267   -8721.2646    20775.387 
  959400    310.73909   -8674.9989    44.460201   -8719.4592   -9915.5921 
  959600    339.11313   -8660.8174    48.519928   -8709.3373   -24099.465 
  959800    303.17866   -8672.5888    43.378464   -8715.9673   -29916.037 
  960000    278.24452   -8684.0858    39.810916   -8723.8967   -2945.7084 
  960200    266.48721   -8664.3641    38.128693   -8702.4928   -23098.605 
  960400    285.65683   -8677.0588    40.871459   -8717.9303   -11456.337 
  960600    317.31238   -8679.1237      45.4007   -8724.5244   -34795.331 
  960800    299.60384   -8663.0392    42.866982   -8705.9061    -1346.825 
  961000    302.40538   -8676.7197    43.267824   -8719.9875   -5101.4707 
  961200    269.85499   -8683.9851     38.61055   -8722.5957   -14529.612 
  961400     362.8227   -8667.7137    51.912267    -8719.626    34642.915 
  961600    322.26268   -8672.4199    46.108985   -8718.5289   -14696.644 
  961800     289.3618   -8677.1082    41.401563   -8718.5097   -1082.6647 
  962000    259.40606   -8679.4907    37.115529   -8716.6062    63472.449 
  962200    365.88224   -8667.0051    52.350022   -8719.3552     21927.17 
  962400    315.51588   -8678.5746    45.143659   -8723.7183   -9331.4334 
  962600    317.99228   -8677.4514    45.497979   -8722.9494    1314.3021 
  962800    305.02397   -8682.4189    43.642489   -8726.0614    25144.381 
  963000    326.08952    -8664.852    46.656524   -8711.5085   -16635.919 
  963200    281.07811   -8678.9325    40.216341   -8719.1489    40309.046 
  963400    265.35817   -8681.2065    37.967151   -8719.1737    -55985.32 
  963600    310.35605   -8674.6987    44.405397   -8719.1041    28709.217 
  963800    272.70739   -8680.5056    39.018669   -8719.5243    9574.5648 
  964000    258.28489   -8686.9161    36.955113   -8723.8712    50759.702 
  964200    327.24234   -8670.2165    46.821468   -8717.0379     4540.867 
  964400    312.47456   -8679.5849    44.708511   -8724.2934    17475.202 
  964600    270.41028   -8689.3021    38.690001   -8727.9921   -3685.4153 
  964800    278.53162   -8680.1632    39.851993   -8720.0152   -38273.543 
  965000    315.33708   -8670.3312    45.118077   -8715.4493   -5655.7482 
  965200    355.05394   -8674.1383    50.800721   -8724.9391   -5804.3206 
  965400    266.45573   -8689.7113    38.124188   -8727.8355    7241.7275 
  965600    289.41988    -8671.701    41.409872   -8713.1108    37289.345 
  965800    308.19408   -8679.6316    44.096065   -8723.7277    11471.125 
  966000    346.54278   -8676.1213    49.582953   -8725.7042    13476.696 
  966200    323.13086   -8671.3001    46.233203   -8717.5333   -15922.995 
  966400    287.34396    -8677.559    41.112853   -8718.6719    9576.8982 
  966600    315.62386   -8675.6627    45.159109   -8720.8218     -26044.1 
  966800    302.83553   -8674.6123    43.329369   -8717.9417    5897.9144 
  967000    283.16458   -8681.2098    40.514872   -8721.7246   -23066.794 
  967200     262.5996   -8681.5798    37.572457   -8719.1522   -22489.966 
  967400    306.28234   -8670.1205    43.822535    -8713.943    22705.656 
  967600    249.80125   -8682.6347    35.741283    -8718.376    9849.8191 
  967800    270.66066   -8678.6641    38.725825   -8717.3899   -25306.748 
  968000    300.81249   -8677.4229    43.039914   -8720.4628   -23166.485 
  968200    295.06366   -8673.5727    42.217379     -8715.79    29720.026 
  968400    243.86991    -8683.567    34.892634   -8718.4596    6396.1553 
  968600    343.51749   -8676.0723    49.150098   -8725.2224    68597.493 
  968800    324.05622   -8675.4147    46.365601   -8721.7803   -3874.3458 
  969000    309.59469   -8681.0468    44.296462   -8725.3433    28320.781 
  969200    363.82775   -8668.4656    52.056068   -8720.5217   -19814.115 
  969400    258.69073    -8682.048     37.01318   -8719.0612   -15042.431 
  969600    299.12794   -8674.7521    42.798892    -8717.551    22442.376 
  969800    265.07641   -8689.8752    37.926837   -8727.8021   -9186.5418 
  970000    245.55126   -8680.2336      35.1332   -8715.3668   -9708.7578 
  970200    271.36276    -8674.636     38.82628   -8713.4623    27770.823 
  970400    346.23733   -8670.3742     49.53925   -8719.9134    9345.4223 
  970600    239.29502   -8689.6884    34.238064   -8723.9265    25682.712 
  970800    273.63177   -8678.1659    39.150929   -8717.3168   -21425.082 
  971000     332.3019   -8670.8745    47.545384   -8718.4199    1344.7521 
  971200     254.7056   -8690.0042    36.442993   -8726.4472    761.85035 
  971400    263.52584   -8684.1958    37.704983   -8721.9008   -23357.663 
  971600    299.19706    -8674.065     42.80878   -8716.8738     2525.995 
  971800     390.2356   -8664.0891    55.834474   -8719.9236   -4189.7883 
  972000    373.25789   -8669.7742    53.405322   -8723.1796    12653.187 
  972200    305.62552   -8677.7297    43.728558   -8721.4583   -20741.692 
  972400    312.54431   -8670.0781    44.718491   -8714.7966   -11204.878 
  972600    296.65177   -8676.4418    42.444604   -8718.8864   -10667.252 
  972800    269.84311   -8681.9382     38.60885   -8720.5471     9182.048 
  973000     333.7945   -8664.3215    47.758944   -8712.0804    11442.051 
  973200    258.01252   -8677.0822    36.916143   -8713.9983   -1626.5679 
  973400    322.63242   -8678.4484    46.161886   -8724.6102   -12444.632 
  973600    306.93223   -8675.6769    43.915521   -8719.5925    11467.905 
  973800    323.77715   -8664.7908    46.325673   -8711.1165    46208.279 
  974000    297.46487   -8674.7812    42.560941   -8717.3422    41992.138 
  974200    296.63286   -8677.2898    42.441899   -8719.7317    15675.878 
  974400    366.17212   -8665.7527    52.391497   -8718.1442    1992.1353 
  974600     258.2501   -8681.7908    36.950136   -8718.7409    63755.614 
  974800    299.54631   -8672.0773    42.858752   -8714.9361   -30124.382 
  975000    384.90575   -8663.0706    55.071884   -8718.1425   -11796.523 
  975200     278.5939   -8680.5471    39.860903    -8720.408    23652.925 
  975400    263.55901   -8678.5387    37.709729   -8716.2484    7870.7091 
  975600    326.25438   -8662.7385    46.680112   -8709.4186    7930.6303 
  975800     291.0051   -8674.7172    41.636684   -8716.3539   -30776.916 
  976000    271.16823   -8679.0125    38.798448    -8717.811   -28705.723 
  976200    403.52951   -8666.0823    57.736551   -8723.8189    15282.629 
  976400    288.70409    -8681.542    41.307459   -8722.8495   -15915.698 
  976600    343.19607   -8673.1943     49.10411   -8722.2984    969.16152 
  976800    286.32179   -8677.4515    40.966602   -8718.4181   -24455.625 
  977000     298.9726   -8676.8606    42.776665   -8719.6373    1842.0381 
  977200     268.8226   -8688.9535    38.462838   -8727.4164   -41122.542 
  977400    308.16586   -8677.4367    44.092027   -8721.5287    12064.635 
  977600    308.03263   -8673.9199    44.072965   -8717.9929   -19678.551 
  977800    289.94558   -8681.3724     41.48509   -8722.8575    41656.314 
  978000    275.47252   -8686.3778      39.4143   -8725.7921   -17675.669 
  978200    324.81016   -8671.0675    46.473475    -8717.541   -22699.381 
  978400    303.21052   -8675.8202    43.383023   -8719.2032    17004.175 
  978600    275.21194   -8680.4411    39.377016   -8719.8182    7010.8636 
  978800    349.39203   -8682.7862    49.990621   -8732.7768    23685.673 
  979000    321.98297   -8669.1607    46.068964   -8715.2296    22931.335 
  979200    251.84125   -8684.3099    36.033165    -8720.343   -12477.059 
  979400    316.98415   -8678.8224    45.353738   -8724.1762   -56148.957 
  979600    338.59505    -8661.735    48.445801   -8710.1808    21635.316 
  979800    372.90593   -8664.2569    53.354963   -8717.6119    51272.615 
  980000    306.40307   -8682.8957    43.839809   -8726.7355   -1785.4512 
  980200    236.51164   -8688.1601    33.839821   -8721.9999    12192.252 
  980400    352.03615   -8669.5723    50.368939   -8719.9412   -9072.9989 
  980600    289.16453   -8681.2476    41.373337   -8722.6209   -1272.2043 
  980800    341.67303   -8676.2642    48.886195   -8725.1504     14038.25 
  981000    317.89583   -8672.4283     45.48418   -8717.9125   -19288.219 
  981200    255.00719   -8674.8787    36.486143   -8711.3649      5329.16 
  981400    318.27034   -8676.1889    45.537764   -8721.7267   -33552.748 
  981600    247.95776   -8683.9126     35.47752   -8719.3902   -11353.692 
  981800    288.78877   -8671.1179    41.319575   -8712.4374    32188.135 
  982000    323.03011   -8672.1847    46.218787   -8718.4035    39916.513 
  982200    280.36954   -8679.3019     40.11496   -8719.4169     24368.05 
  982400    330.78376   -8672.2383    47.328171   -8719.5665    40539.486 
  982600    322.73685     -8661.18    46.176827   -8707.3568   -3386.6272 
  982800    296.94061     -8680.75     42.48593   -8723.2359   -23910.082 
  983000    257.72318    -8684.849    36.874745   -8721.7238   -18418.617 
  983200    298.89745   -8666.8241    42.765913   -8709.5901   -18872.087 
  983400    277.20328   -8678.1776    39.661935   -8717.8395   -17864.186 
  983600    259.33588   -8684.4221    37.105487   -8721.5276   -2715.8781 
  983800    319.24745    -8665.657    45.677568   -8711.3345   -4187.3056 
  984000    309.68986   -8672.5044    44.310079   -8716.8145   -19351.367 
  984200    325.58173   -8678.9171     46.58387   -8725.5009   -2366.6381 
  984400    318.00158   -8676.0537    45.499311    -8721.553   -6600.8364 
  984600    309.46006   -8669.6844    44.277199   -8713.9616   -29028.692 
  984800     320.4831   -8679.5378    45.854364   -8725.3922   -3016.5126 
  985000     310.1021   -8683.1662    44.369062   -8727.5353     74199.84 
  985200    322.64518   -8673.6336    46.163712   -8719.7974   -34822.321 
  985400    320.37065   -8677.5491    45.838275   -8723.3874    44722.022 
  985600    221.15305   -8690.6654    31.642331   -8722.3077   -42535.991 
  985800    310.87472   -8679.3298    44.479608   -8723.8094    26282.653 
  986000    271.11353   -8670.8097     38.79062   -8709.6003   -35160.197 
  986200    278.46727    -8683.905    39.842785   -8723.7478     7061.791 
  986400     261.6061   -8684.0522    37.430309   -8721.4825     -7907.45 
  986600    291.76853   -8677.4789    41.745916   -8719.2248   -15556.096 
  986800    312.49299   -8669.9828    44.711148    -8714.694    34070.222 
  987000    298.48828   -8663.4204     42.70737   -8706.1277     20350.46 
  987200    293.33886   -8679.7984    41.970596    -8721.769   -19711.248 
  987400    264.31298   -8679.0467    37.817606   -8716.8643    9538.6202 
  987600    330.17228    -8668.026    47.240681   -8715.2666    22722.283 
  987800     280.9055   -8674.2662    40.191644   -8714.4578   -6381.8782 
  988000    317.45843   -8681.1485    45.421597   -8726.5701    15136.306 
  988200    273.54133   -8674.2192    39.137987   -8713.3572    25730.182 
  988400      399.237   -8663.3584    57.122384   -8720.4808   -28656.164 
  988600    307.36718   -8679.2676    43.977752   -8723.2454   -4856.1944 
  988800    268.96628   -8678.9593    38.483394   -8717.4427   -26620.882 
  989000    265.74988   -8678.5533    38.023196   -8716.5765    18000.594 
  989200    348.36476     -8667.22    49.843641   -8717.0636   -1497.6105 
  989400    259.11861   -8682.5186    37.074401    -8719.593   -32866.291 
  989600    335.71129   -8675.0138    48.033196    -8723.047    27931.865 
  989800    256.20096   -8683.2711    36.656946    -8719.928    22422.216 
  990000     263.8807   -8685.3481    37.755756   -8723.1039   -4989.1897 
  990200    321.23243   -8680.0196    45.961576   -8725.9812    8099.3441 
  990400      303.063   -8666.1414    43.361916   -8709.5033    5366.4986 
  990600    354.63165   -8668.2669      50.7403   -8719.0072    31140.213 
  990800    316.98783   -8679.8399    45.354265   -8725.1941   -9818.4817 
  991000    319.05545   -8678.2865    45.650097   -8723.9366    23460.097 
  991200    341.18192    -8665.137    48.815928   -8713.9529   -36345.439 
  991400    310.02122   -8680.9087     44.35749   -8725.2662   -26806.648 
  991600    328.73113    -8675.126    47.034483   -8722.1605    33142.074 
  991800    309.97965   -8665.4208    44.351542   -8709.7723   -39544.312 
  992000    272.92146   -8674.5162    39.049297   -8713.5655    10938.692 
  992200      279.511   -8682.2543    39.992121   -8722.2464    38594.654 
  992400     324.4578   -8666.9491    46.423059   -8713.3722   -50395.262 
  992600    315.00445   -8670.3039    45.070485   -8715.3743   -4033.3649 
  992800    292.11603   -8680.8047    41.795635   -8722.6003    52950.632 
  993000     277.3165   -8673.6342    39.678135   -8713.3123   -1550.9403 
  993200    373.14218   -8659.5256    53.388767   -8712.9144   -21453.067 
  993400    298.73887   -8674.2291    42.743224   -8716.9723    39948.859 
  993600    265.04928   -8684.8285    37.922954   -8722.7514    18622.979 
  993800    333.39898   -8665.8447    47.702354   -8713.5471    42443.411 
  994000    298.16201   -8676.3923    42.660688   -8719.0529   -24911.301 
  994200    327.68112   -8678.5917    46.884249    -8725.476   -17924.103 
  994400    335.65573   -8662.0539    48.025246   -8710.0791   -23253.727 
  994600    285.85301   -8679.0715    40.899529    -8719.971    2376.8361 
  994800    308.60372   -8678.2833    44.154675    -8722.438   -11253.796 
  995000     310.5542   -8677.3699    44.433748   -8721.8036   -11589.948 
  995200    282.60571   -8677.0362    40.434909   -8717.4712   -7334.8743 
  995400    329.16869   -8666.3845    47.097088   -8713.4815     19696.73 
  995600    284.49639   -8681.0958    40.705426   -8721.8013   -26371.513 
  995800    275.08646    -8678.802    39.359063   -8718.1611   -49093.685 
  996000    365.05522   -8665.7816    52.231693   -8718.0133    13350.253 
  996200    274.99034   -8679.0727     39.34531    -8718.418    8384.9467 
  996400    304.88451   -8683.1537    43.622535   -8726.7762   -22466.354 
  996600    273.71408   -8675.2265    39.162705   -8714.3892   -41818.855 
  996800    280.38698   -8667.8035    40.117456   -8707.9209   -56046.049 
  997000    219.79814   -8688.2711    31.448473   -8719.7196    1385.0618 
  997200     247.3672   -8680.5304    35.393022   -8715.9234   -31033.818 
  997400    302.01172   -8668.6508    43.211499   -8711.8623   -18423.501 
  997600    288.07586   -8677.4447    41.217572   -8718.6622    18663.888 
  997800    299.07733   -8681.7638     42.79165   -8724.5555    25201.135 
  998000    284.60626   -8677.0269    40.721145    -8717.748   -12809.853 
  998200    295.31101   -8676.8405    42.252769   -8719.0933   -37470.403 
  998400    280.76242   -8660.5782    40.171174   -8700.7494    2574.8759 
  998600    301.49486   -8680.8767    43.137548   -8724.0143    28991.662 
  998800    292.05581   -8677.8298    41.787019   -8719.6168   -9677.1315 
  999000    307.77237   -8666.4475    44.035727   -8710.4833    58208.141 
  999200    281.23294   -8682.3264    40.238495   -8722.5649    -43959.39 
  999400    277.26628    -8682.294    39.670949    -8721.965    2057.7257 
  999600    397.72249   -8666.8686    56.905689   -8723.7743   -1586.9663 
  999800    296.86333   -8676.5434    42.474874   -8719.0182     3984.236 
 1000000    255.03605   -8695.1291    36.490273   -8731.6194   -29932.733 
Loop time of 4241.65 on 8 procs for 1000000 steps with 49 atoms

Performance: 5.092 ns/day, 4.713 hours/ns, 235.757 timesteps/s
99.0% CPU use with 8 MPI tasks x no OpenMP threads

MPI task timing breakdown:
Section |  min time  |  avg time  |  max time  |%varavg| %total
---------------------------------------------------------------
Pair    | 3727.6     | 3783.1     | 3825.6     |  45.8 | 89.19
Neigh   | 2.5906     | 2.6617     | 2.7327     |   2.5 |  0.06
Comm    | 65.48      | 107.85     | 163.85     | 272.9 |  2.54
Output  | 0.0895     | 0.098729   | 0.15901    |   7.3 |  0.00
Modify  | 343.53     | 344        | 344.33     |   1.6 |  8.11
Other   |            | 3.908      |            |       |  0.09

Nlocal:    6.125 ave 7 max 6 min
Histogram: 7 0 0 0 0 0 0 0 0 1
Nghost:    914.5 ave 934 max 898 min
Histogram: 1 2 1 0 0 0 1 2 0 1
Neighs:    1679 ave 1900 max 1636 min
Histogram: 7 0 0 0 0 0 0 0 0 1

Total # of neighbors = 13432
Ave neighs/atom = 274.122
Neighbor list builds = 1213
Dangerous builds = 0

Please see the log.cite file for references relevant to this simulation

Total wall time: 1:10:46
