ITEM: TIMESTEP
0
ITEM: NUMBER OF ATOMS
203
ITEM: BOX BOUNDS pp pp pp
0.0000000000000000e+00 1.6114000000000001e+01
0.0000000000000000e+00 1.6113000000000000e+01
0.0000000000000000e+00 1.6111999999999998e+01
ITEM: ATOMS id type x y z 
5 1 5.384 5.384 5.384 
65 1 5.66 6.662 2.461 
66 1 5.336 7.323 3.711 
68 1 4.865 6.606 4.866 
79 1 5.364 7.322 1.219 
89 1 6.662 2.461 5.66 
90 1 7.323 3.711 5.336 
92 1 6.606 4.866 4.866 
101 1 7.322 1.219 5.364 
109 1 2.461 5.66 6.662 
110 1 3.71 5.336 7.323 
112 1 4.865 4.866 6.606 
121 1 1.218 5.364 7.322 
129 1 6.662 5.66 2.461 
130 1 7.323 5.336 3.711 
137 1 7.322 5.364 1.219 
141 1 2.461 6.662 5.66 
142 1 3.71 7.323 5.336 
149 1 1.218 7.322 5.364 
153 1 5.66 2.461 6.662 
154 1 5.336 3.711 7.323 
161 1 5.364 1.219 7.322 
7 1 6.662 5.66 13.616 
8 1 7.323 5.336 12.366 
10 1 6.606 4.866 11.211 
21 1 7.322 5.364 14.858 
32 1 1.218 7.322 10.713 
40 1 2.461 6.662 10.417 
41 1 3.71 7.323 10.741 
43 1 4.865 6.606 11.211 
47 1 5.364 1.219 8.755 
55 1 5.66 2.461 9.415 
56 1 5.336 3.711 8.754 
58 1 4.865 4.866 9.471 
64 1 5.629 6.643 16.094 
75 1 5.384 5.384 10.693 
118 1 6.643 5.629 16.094 
168 1 5.66 6.662 13.616 
169 1 5.336 7.323 12.366 
176 1 5.364 7.322 14.858 
182 1 7.322 1.219 10.713 
186 1 6.662 2.461 10.417 
187 1 7.323 3.711 10.741 
191 1 1.218 5.364 8.755 
195 1 2.461 5.66 9.415 
196 1 3.71 5.336 8.754 
9 1 7.322 10.713 1.219 
19 1 6.662 10.417 2.461 
20 1 7.323 10.741 3.711 
22 1 6.606 11.211 4.866 
27 1 1.218 8.755 5.364 
35 1 2.461 9.415 5.66 
36 1 3.71 8.754 5.336 
38 1 4.865 9.471 4.866 
44 1 6.643 16.095 5.63 
50 1 5.66 13.616 6.662 
51 1 5.336 12.366 7.323 
53 1 4.865 11.211 6.606 
62 1 5.364 14.858 7.322 
76 1 5.629 16.095 6.643 
81 1 5.384 10.693 5.384 
167 1 5.364 8.755 1.219 
171 1 5.66 9.415 2.461 
172 1 5.336 8.754 3.711 
180 1 6.662 13.616 5.66 
181 1 7.323 12.366 5.336 
188 1 7.322 14.858 5.364 
194 1 1.218 10.713 7.322 
198 1 2.461 10.417 6.662 
199 1 3.71 10.741 7.323 
17 1 5.384 10.693 10.693 
39 1 6.643 16.095 10.448 
49 1 5.629 9.434 16.095 
73 1 5.364 8.755 14.858 
82 1 5.629 16.095 9.434 
83 1 5.66 9.415 13.616 
84 1 5.336 8.754 12.366 
86 1 4.865 9.471 11.211 
91 1 7.322 14.858 10.713 
99 1 6.662 13.616 10.417 
100 1 7.323 12.366 10.741 
102 1 6.606 11.211 11.211 
113 1 6.643 10.448 16.094 
114 1 2.461 10.417 9.415 
115 1 3.71 10.741 8.754 
117 1 4.865 11.211 9.471 
126 1 1.218 10.713 8.755 
131 1 7.322 10.713 14.858 
135 1 6.662 10.417 13.616 
136 1 7.323 10.741 12.366 
144 1 2.461 9.415 10.417 
145 1 3.71 8.754 10.741 
152 1 1.218 8.755 10.713 
158 1 5.364 14.858 8.755 
162 1 5.66 13.616 9.415 
163 1 5.336 12.366 8.754 
3 1 8.755 5.364 1.219 
13 1 9.415 5.66 2.461 
14 1 8.754 5.336 3.711 
16 1 9.471 4.866 4.866 
24 1 16.095 5.629 6.643 
30 1 13.616 6.662 5.66 
31 1 12.367 7.323 5.336 
33 1 11.212 6.606 4.866 
42 1 14.859 7.322 5.364 
52 1 10.713 1.219 7.322 
60 1 10.417 2.461 6.662 
61 1 10.741 3.711 7.323 
63 1 11.212 4.866 6.606 
87 1 10.693 5.384 5.384 
98 1 16.095 6.643 5.63 
170 1 10.713 7.322 1.219 
174 1 10.417 6.662 2.461 
175 1 10.741 7.323 3.711 
179 1 8.755 1.219 5.364 
183 1 9.415 2.461 5.66 
184 1 8.754 3.711 5.336 
192 1 13.616 5.66 6.662 
193 1 12.367 5.336 7.323 
200 1 14.859 5.364 7.322 
6 1 16.096 5.629 9.434 
23 1 10.693 5.384 10.693 
59 1 10.448 6.643 16.095 
67 1 10.713 7.322 14.858 
77 1 10.417 6.662 13.616 
78 1 10.741 7.323 12.366 
80 1 11.212 6.606 11.211 
93 1 16.096 6.643 10.448 
94 1 9.415 2.461 10.417 
95 1 8.754 3.711 10.741 
97 1 9.471 4.866 11.211 
106 1 8.755 1.219 10.713 
116 1 14.859 5.364 8.755 
123 1 9.434 5.629 16.094 
124 1 13.616 5.66 9.415 
125 1 12.367 5.336 8.754 
127 1 11.212 4.866 9.471 
134 1 8.755 5.364 14.858 
138 1 9.415 5.66 13.616 
139 1 8.754 5.336 12.366 
143 1 14.859 7.322 10.713 
147 1 13.616 6.662 10.417 
148 1 12.367 7.323 10.741 
156 1 10.417 2.461 9.415 
157 1 10.741 3.711 8.754 
164 1 10.713 1.219 8.755 
11 1 10.693 10.693 5.384 
18 1 16.096 10.448 6.643 
29 1 9.434 16.095 5.63 
70 1 10.448 16.095 6.643 
71 1 10.417 9.415 2.461 
72 1 10.741 8.754 3.711 
74 1 11.212 9.471 4.866 
85 1 10.713 8.755 1.219 
96 1 8.755 14.858 5.364 
103 1 16.095 9.434 5.63 
104 1 9.415 13.616 5.66 
105 1 8.754 12.366 5.336 
107 1 9.471 11.211 4.866 
111 1 14.859 10.713 7.322 
119 1 13.616 10.417 6.662 
120 1 12.367 10.741 7.323 
122 1 11.212 11.211 6.606 
132 1 9.415 10.417 2.461 
133 1 8.754 10.741 3.711 
140 1 8.755 10.713 1.219 
146 1 14.859 8.755 5.364 
150 1 13.616 9.415 5.66 
151 1 12.367 8.754 5.336 
155 1 10.713 14.858 7.322 
159 1 10.417 13.616 6.662 
160 1 10.741 12.366 7.323 
1 1 9.415 10.417 13.616 
2 1 8.754 10.741 12.366 
4 1 9.471 11.211 11.211 
12 1 16.096 10.448 9.434 
15 1 8.755 10.713 14.858 
25 1 13.616 9.415 10.417 
26 1 12.367 8.754 10.741 
28 1 11.212 9.471 11.211 
34 1 9.434 16.095 10.448 
37 1 14.859 8.755 10.713 
45 1 10.417 13.616 9.415 
46 1 10.741 12.366 8.754 
48 1 11.212 11.211 9.471 
54 1 10.448 9.434 16.094 
57 1 10.713 14.858 8.755 
69 1 10.693 10.693 10.693 
88 1 10.448 16.095 9.434 
108 1 16.096 9.434 10.448 
128 1 9.434 10.448 16.094 
165 1 10.417 9.415 13.616 
166 1 10.741 8.754 12.366 
173 1 10.713 8.755 14.858 
177 1 9.415 13.616 10.417 
178 1 8.754 12.366 10.741 
185 1 8.755 14.858 10.713 
189 1 13.616 10.417 9.415 
190 1 12.367 10.741 8.754 
197 1 14.859 10.713 8.755 
201 2 8.754 12.091 12.366 
202 2 8.52 13.196 13.378 
203 3 8.565 13.932 12.725 
ITEM: TIMESTEP
10
ITEM: NUMBER OF ATOMS
203
ITEM: BOX BOUNDS pp pp pp
0.0000000000000000e+00 1.6114000000000001e+01
0.0000000000000000e+00 1.6113000000000000e+01
0.0000000000000000e+00 1.6111999999999998e+01
ITEM: ATOMS id type x y z 
5 1 5.34858 5.34856 5.34763 
65 1 5.59134 6.59799 2.42228 
66 1 5.37717 7.3266 3.69783 
68 1 4.87476 6.61222 4.87695 
79 1 5.25316 7.31082 1.1997 
89 1 6.59884 2.42327 5.59132 
90 1 7.32694 3.69724 5.37714 
92 1 6.61208 4.87643 4.87622 
101 1 7.31324 1.20184 5.2527 
109 1 2.41974 5.59259 6.59919 
110 1 3.69533 5.37692 7.32593 
112 1 4.87538 4.87452 6.61357 
121 1 1.19925 5.25489 7.31323 
129 1 6.59975 5.59081 2.42252 
130 1 7.32705 5.37722 3.697 
137 1 7.31273 5.25349 1.20008 
141 1 2.4203 6.59985 5.59235 
142 1 3.69475 7.32771 5.3769 
149 1 1.19929 7.31336 5.25523 
153 1 5.59071 2.42424 6.59981 
154 1 5.3771 3.69698 7.32898 
161 1 5.25335 1.19974 7.3164 
7 1 6.59982 5.5914 13.6562 
8 1 7.32866 5.37869 12.3814 
10 1 6.61693 4.87299 11.2013 
21 1 7.31465 5.25422 14.8758 
32 1 1.19863 7.31335 10.8226 
40 1 2.42197 6.59993 10.4858 
41 1 3.69279 7.32922 10.7004 
43 1 4.87496 6.6154 11.201 
47 1 5.25551 1.20161 8.76615 
55 1 5.59128 2.42077 9.47551 
56 1 5.37806 3.69405 8.74887 
58 1 4.87552 4.8722 9.46037 
64 1 5.54847 6.57296 16.0898 
75 1 5.34904 5.34537 10.7293 
118 1 6.57214 5.54911 16.0934 
168 1 5.59103 6.60089 13.6574 
169 1 5.37606 7.32815 12.3828 
176 1 5.25523 7.31604 14.8759 
182 1 7.30945 1.20943 10.8263 
186 1 6.59577 2.42625 10.4828 
187 1 7.32948 3.69704 10.6993 
191 1 1.19907 5.25472 8.76283 
195 1 2.4187 5.59169 9.47753 
196 1 3.69472 5.37827 8.74935 
9 1 7.31538 10.8231 1.19662 
19 1 6.60062 10.488 2.41946 
20 1 7.3265 10.6989 3.69684 
22 1 6.61312 11.2012 4.87667 
27 1 1.19894 8.7635 5.25518 
35 1 2.42008 9.47654 5.59162 
36 1 3.69481 8.74912 5.37703 
38 1 4.87354 9.46353 4.87756 
44 1 6.56977 16.0948 5.55027 
50 1 5.58817 13.6552 6.60294 
51 1 5.37821 12.3817 7.33183 
53 1 4.87496 11.2034 6.61569 
62 1 5.25447 14.8774 7.31716 
76 1 5.54718 16.0925 6.57473 
81 1 5.34756 10.728 5.34661 
167 1 5.25299 8.76705 1.19573 
171 1 5.59 9.47811 2.42281 
172 1 5.37747 8.74876 3.69705 
180 1 6.59883 13.6549 5.59016 
181 1 7.32922 12.3794 5.37775 
188 1 7.31725 14.8769 5.2523 
194 1 1.19855 10.8225 7.31328 
198 1 2.4196 10.4846 6.59881 
199 1 3.69468 10.6988 7.3292 
17 1 5.3399 10.7237 10.7284 
39 1 6.57057 16.0994 10.5247 
49 1 5.55353 9.50776 16.0902 
73 1 5.25583 8.76345 14.8757 
82 1 5.54598 16.0951 9.5003 
83 1 5.58934 9.47596 13.6574 
84 1 5.37378 8.75018 12.3835 
86 1 4.87413 9.46185 11.203 
91 1 7.3166 14.8867 10.8052 
99 1 6.60227 13.6502 10.487 
100 1 7.32843 12.3711 10.669 
102 1 6.63865 11.1863 11.232 
113 1 6.57421 10.5265 16.0899 
114 1 2.42219 10.4856 9.47702 
115 1 3.69917 10.7029 8.75304 
117 1 4.87713 11.2068 9.46341 
126 1 1.19793 10.8227 8.76341 
131 1 7.31812 10.8217 14.8763 
135 1 6.61912 10.4801 13.6289 
136 1 7.31077 10.6179 12.361 
144 1 2.42135 9.47672 10.485 
145 1 3.69674 8.74974 10.7022 
152 1 1.19892 8.76401 10.8226 
158 1 5.25619 14.8744 8.76352 
162 1 5.58766 13.6546 9.47028 
163 1 5.37637 12.3821 8.75049 
3 1 8.76421 5.25335 1.199 
13 1 9.47754 5.5906 2.42215 
14 1 8.74898 5.37735 3.69708 
16 1 9.46436 4.87633 4.87623 
24 1 16.0957 5.55061 6.57248 
30 1 13.6573 6.59925 5.59196 
31 1 12.3822 7.32715 5.37757 
33 1 11.2019 6.61229 4.87678 
42 1 14.8782 7.31339 5.2548 
52 1 10.8228 1.20161 7.31459 
60 1 10.4862 2.42408 6.60254 
61 1 10.6998 3.69465 7.32982 
63 1 11.2008 4.87178 6.61579 
87 1 10.7288 5.34785 5.34819 
98 1 16.0959 6.57258 5.55116 
170 1 10.8232 7.31333 1.19961 
174 1 10.4866 6.59948 2.42115 
175 1 10.6989 7.32728 3.69612 
179 1 8.76671 1.19819 5.25372 
183 1 9.4791 2.42243 5.59245 
184 1 8.74982 3.69589 5.37763 
192 1 13.6576 5.59206 6.59913 
193 1 12.3813 5.37754 7.32648 
200 1 14.8783 5.25468 7.31336 
6 1 16.0957 5.55035 9.50483 
23 1 10.729 5.34626 10.7281 
59 1 10.5274 6.57206 16.0943 
67 1 10.8233 7.31659 14.8789 
77 1 10.4827 6.59396 13.6626 
78 1 10.6982 7.31689 12.3834 
80 1 11.2011 6.60768 11.1963 
93 1 16.0951 6.57245 10.5268 
94 1 9.47998 2.42597 10.4826 
95 1 8.74906 3.69528 10.7005 
97 1 9.45993 4.87291 11.2025 
106 1 8.7616 1.2062 10.8261 
116 1 14.878 5.25449 8.76339 
123 1 9.50495 5.54989 16.0921 
124 1 13.6579 5.59151 9.47765 
125 1 12.3814 5.37694 8.75053 
127 1 11.2011 4.87064 9.46026 
134 1 8.76394 5.25488 14.876 
138 1 9.47482 5.5899 13.6555 
139 1 8.75053 5.37584 12.38 
143 1 14.8783 7.31495 10.822 
147 1 13.6611 6.59771 10.4839 
148 1 12.3862 7.32373 10.6974 
156 1 10.4817 2.42326 9.47939 
157 1 10.6997 3.69564 8.74714 
164 1 10.8236 1.20736 8.76007 
11 1 10.7293 10.7291 5.34712 
18 1 16.0944 10.5266 6.57286 
29 1 9.50408 16.0927 5.55053 
70 1 10.5251 16.0993 6.5682 
71 1 10.4859 9.47766 2.42123 
72 1 10.6997 8.74982 3.69611 
74 1 11.2027 9.46209 4.8753 
85 1 10.8231 8.76424 1.19869 
96 1 8.76736 14.878 5.25545 
103 1 16.0958 9.50411 5.551 
104 1 9.47627 13.6568 5.59092 
105 1 8.75111 12.381 5.37738 
107 1 9.46178 11.2032 4.87646 
111 1 14.8784 10.8217 7.3149 
119 1 13.6606 10.4843 6.59858 
120 1 12.3852 10.6993 7.32554 
122 1 11.1995 11.1999 6.61079 
132 1 9.47702 10.4865 2.41789 
133 1 8.75114 10.6992 3.6955 
140 1 8.7641 10.8219 1.19647 
146 1 14.8781 8.76392 5.25494 
150 1 13.6576 9.47728 5.5916 
151 1 12.3822 8.75015 5.37716 
155 1 10.8266 14.8789 7.30833 
159 1 10.4823 13.6545 6.59436 
160 1 10.6988 12.3828 7.32311 
1 1 9.47838 10.4684 13.6399 
2 1 8.74665 10.9503 12.4324 
4 1 9.4343 11.1659 11.1007 
12 1 16.0942 10.5263 9.50428 
15 1 8.76479 10.8221 14.871 
25 1 13.6629 9.4799 10.4846 
26 1 12.3947 8.74066 10.6964 
28 1 11.2156 9.45438 11.2072 
34 1 9.5122 16.1092 10.5246 
37 1 14.8795 8.76254 10.8219 
45 1 10.5039 13.6605 9.47129 
46 1 10.7063 12.3829 8.73801 
48 1 11.2076 11.2057 9.45292 
54 1 10.5233 9.50788 16.0927 
57 1 10.8356 14.8851 8.75328 
69 1 10.7275 10.7153 10.7158 
88 1 10.5361 16.0974 9.50298 
108 1 16.0934 9.50489 10.5261 
128 1 9.50129 10.5254 16.0912 
165 1 10.4684 9.46085 13.6559 
166 1 10.703 8.73978 12.3914 
173 1 10.8199 8.76482 14.874 
177 1 9.47423 13.6551 10.4417 
178 1 8.75645 12.33 10.5682 
185 1 8.76547 14.8721 10.7356 
189 1 13.6614 10.4855 9.4781 
190 1 12.3912 10.6986 8.74421 
197 1 14.8784 10.8217 8.7628 
201 2 8.69311 12.0762 12.6115 
202 2 8.50716 13.2177 13.4587 
203 3 8.55301 13.9056 12.8812 
ITEM: TIMESTEP
20
ITEM: NUMBER OF ATOMS
203
ITEM: BOX BOUNDS pp pp pp
0.0000000000000000e+00 1.6114000000000001e+01
0.0000000000000000e+00 1.6113000000000000e+01
0.0000000000000000e+00 1.6111999999999998e+01
ITEM: ATOMS id type x y z 
5 1 5.35626 5.35655 5.35788 
65 1 5.5894 6.60397 2.42052 
66 1 5.36881 7.32586 3.69188 
68 1 4.86785 6.6143 4.86969 
79 1 5.24362 7.31163 1.19748 
89 1 6.60428 2.42109 5.59016 
90 1 7.32666 3.69114 5.36876 
92 1 6.61437 4.86917 4.8695 
101 1 7.31115 1.19847 5.24415 
109 1 2.41964 5.59094 6.60524 
110 1 3.68991 5.36817 7.32697 
112 1 4.86758 4.86905 6.6148 
121 1 1.19694 5.2453 7.31179 
129 1 6.60474 5.58948 2.42068 
130 1 7.3267 5.3687 3.69166 
137 1 7.31187 5.24382 1.19745 
141 1 2.41876 6.60475 5.5913 
142 1 3.6894 7.32631 5.36849 
149 1 1.19664 7.31214 5.24551 
153 1 5.59057 2.42156 6.60407 
154 1 5.36813 3.69168 7.32645 
161 1 5.24334 1.19883 7.31042 
7 1 6.60528 5.59067 13.6559 
8 1 7.32723 5.36873 12.3857 
10 1 6.61479 4.87022 11.2079 
21 1 7.31169 5.24423 14.8782 
32 1 1.19736 7.31232 10.8317 
40 1 2.41924 6.60504 10.4862 
41 1 3.68986 7.32684 10.7099 
43 1 4.86906 6.61456 11.2073 
47 1 5.24232 1.2 8.76443 
55 1 5.58905 2.4221 9.47173 
56 1 5.36815 3.6923 8.7498 
58 1 4.868 4.86928 9.46225 
64 1 5.54071 6.56857 16.093 
75 1 5.35684 5.35593 10.7197 
118 1 6.56865 5.54092 16.0939 
168 1 5.59074 6.60425 13.6562 
169 1 5.36617 7.326 12.386 
176 1 5.2443 7.31213 14.8778 
182 1 7.31076 1.20407 10.8367 
186 1 6.60214 2.42516 10.4869 
187 1 7.32712 3.69389 10.7086 
191 1 1.19695 5.24541 8.76525 
195 1 2.41955 5.59131 9.47186 
196 1 3.69009 5.36811 8.75037 
9 1 7.31149 10.8331 1.19365 
19 1 6.60546 10.4883 2.41883 
20 1 7.32682 10.7081 3.69069 
22 1 6.61519 11.2073 4.86899 
27 1 1.19632 8.76532 5.24573 
35 1 2.41864 9.47231 5.59159 
36 1 3.68875 8.75049 5.36845 
38 1 4.86754 9.4615 4.86971 
44 1 6.56856 16.0956 5.54119 
50 1 5.58971 13.6565 6.60343 
51 1 5.36944 12.3854 7.32625 
53 1 4.86694 11.2072 6.61582 
62 1 5.24301 14.8793 7.31047 
76 1 5.5412 16.0954 6.56807 
81 1 5.35575 10.7207 5.35669 
167 1 5.24404 8.76746 1.19521 
171 1 5.58955 9.47327 2.42057 
172 1 5.36858 8.75045 3.69128 
180 1 6.60461 13.6564 5.58907 
181 1 7.32672 12.3857 5.36896 
188 1 7.31162 14.8798 5.2435 
194 1 1.19678 10.8312 7.31235 
198 1 2.41854 10.4858 6.60584 
199 1 3.68887 10.7077 7.32874 
17 1 5.36445 10.7226 10.7281 
39 1 6.56646 16.1029 10.5349 
49 1 5.54549 9.51199 16.0924 
73 1 5.24469 8.76815 14.8772 
82 1 5.53682 16.0966 9.50744 
83 1 5.58998 9.47286 13.6563 
84 1 5.36375 8.75111 12.39 
86 1 4.8693 9.46423 11.2082 
91 1 7.31385 14.8818 10.8014 
99 1 6.60954 13.6444 10.4912 
100 1 7.32412 12.3643 10.6719 
102 1 6.6356 11.1889 11.228 
113 1 6.57642 10.5387 16.0826 
114 1 2.42003 10.4862 9.47174 
115 1 3.69184 10.7108 8.75356 
117 1 4.87085 11.2071 9.46867 
126 1 1.1976 10.8312 8.76442 
131 1 7.31928 10.8256 14.8686 
135 1 6.63007 10.4675 13.6335 
136 1 7.31339 10.6225 12.3616 
144 1 2.41991 9.47216 10.4851 
145 1 3.69019 8.75165 10.7106 
152 1 1.19764 8.76494 10.8313 
158 1 5.24285 14.878 8.76556 
162 1 5.58995 13.6554 9.47452 
163 1 5.36833 12.385 8.75214 
3 1 8.76598 5.24421 1.19728 
13 1 9.47282 5.59032 2.42051 
14 1 8.75105 5.36848 3.69152 
16 1 9.46286 4.86928 4.8697 
24 1 16.0955 5.54223 6.56925 
30 1 13.6578 6.60471 5.59145 
31 1 12.3874 7.32641 5.3683 
33 1 11.2091 6.61469 4.86949 
42 1 14.88 7.31186 5.24546 
52 1 10.8331 1.19984 7.31068 
60 1 10.4857 2.42194 6.60498 
61 1 10.7094 3.69107 7.32697 
63 1 11.2091 4.86856 6.61544 
87 1 10.7212 5.35669 5.35824 
98 1 16.0955 6.56928 5.54267 
170 1 10.8324 7.31297 1.1978 
174 1 10.4869 6.60493 2.42021 
175 1 10.7084 7.3263 3.69131 
179 1 8.76547 1.19841 5.2441 
183 1 9.47297 2.42078 5.59071 
184 1 8.75076 3.691 5.36879 
192 1 13.657 5.59125 6.60541 
193 1 12.387 5.36772 7.32714 
200 1 14.8797 5.2453 7.31151 
6 1 16.0956 5.54203 9.50762 
23 1 10.7194 5.35375 10.7174 
59 1 10.5356 6.56906 16.0952 
67 1 10.8328 7.31427 14.8805 
77 1 10.485 6.60107 13.6616 
78 1 10.7096 7.31592 12.3879 
80 1 11.2093 6.60993 11.2057 
93 1 16.0969 6.56856 10.5345 
94 1 9.47312 2.42222 10.487 
95 1 8.75017 3.69185 10.7094 
97 1 9.46285 4.86915 11.2083 
106 1 8.76513 1.2025 10.8368 
116 1 14.8806 5.24493 8.76477 
123 1 9.50902 5.54223 16.0939 
124 1 13.6577 5.58901 9.47019 
125 1 12.3867 5.3671 8.7499 
127 1 11.2093 4.86808 9.46186 
134 1 8.76507 5.2442 14.8794 
138 1 9.47086 5.58909 13.6562 
139 1 8.75017 5.36694 12.3852 
143 1 14.8818 7.31145 10.8321 
147 1 13.6616 6.60095 10.4848 
148 1 12.3891 7.31825 10.7065 
156 1 10.4845 2.42227 9.47269 
157 1 10.7088 3.69155 8.74982 
164 1 10.8356 1.20469 8.76248 
11 1 10.7199 10.7186 5.35446 
18 1 16.0963 10.5342 6.56926 
29 1 9.50789 16.0958 5.54033 
70 1 10.5355 16.0982 6.56584 
71 1 10.4867 9.4718 2.41945 
72 1 10.7088 8.75027 3.69036 
74 1 11.2095 9.46109 4.86806 
85 1 10.8313 8.76626 1.19597 
96 1 8.76571 14.8805 5.24381 
103 1 16.0955 9.50775 5.54312 
104 1 9.47147 13.6568 5.5883 
105 1 8.75052 12.3851 5.36867 
107 1 9.46214 11.2077 4.8684 
111 1 14.8815 10.8316 7.31158 
119 1 13.6612 10.4851 6.60236 
120 1 12.3895 10.7086 7.31967 
122 1 11.2083 11.2054 6.6118 
132 1 9.47282 10.4864 2.41844 
133 1 8.75109 10.7082 3.68953 
140 1 8.76666 10.8317 1.19404 
146 1 14.8808 8.76498 5.24552 
150 1 13.6583 9.47114 5.59001 
151 1 12.3877 8.75027 5.36807 
155 1 10.8366 14.8819 7.30535 
159 1 10.4863 13.6589 6.60101 
160 1 10.7083 12.3861 7.3177 
1 1 9.47083 10.4695 13.6466 
2 1 8.75208 10.9653 12.4347 
4 1 9.43616 11.1703 11.116 
12 1 16.0971 10.5346 9.5077 
15 1 8.76854 10.8228 14.8674 
25 1 13.6645 9.47395 10.4872 
26 1 12.3985 8.74277 10.7069 
28 1 11.2222 9.45092 11.2167 
34 1 9.51497 16.1124 10.5211 
37 1 14.8842 8.76418 10.8332 
45 1 10.5108 13.6619 9.45939 
46 1 10.7192 12.3857 8.74056 
48 1 11.2169 11.2053 9.44971 
54 1 10.5312 9.50895 16.0916 
57 1 10.8488 14.8892 8.75637 
69 1 10.7109 10.6955 10.6981 
88 1 10.549 16.1003 9.50385 
108 1 16.0971 9.50888 10.5342 
128 1 9.5023 10.5322 16.089 
165 1 10.4528 9.45703 13.6546 
166 1 10.7135 8.73814 12.3882 
173 1 10.8252 8.76484 14.8787 
177 1 9.45336 13.6393 10.4178 
178 1 8.74979 12.3473 10.5834 
185 1 8.76819 14.8816 10.7229 
189 1 13.6641 10.4879 9.4732 
190 1 12.3976 10.7074 8.7436 
197 1 14.8837 10.833 8.76371 
201 2 8.68684 12.101 12.6114 
202 2 8.49629 13.2351 13.5317 
203 3 8.54618 13.9143 12.9398 
ITEM: TIMESTEP
30
ITEM: NUMBER OF ATOMS
203
ITEM: BOX BOUNDS pp pp pp
0.0000000000000000e+00 1.6114000000000001e+01
0.0000000000000000e+00 1.6113000000000000e+01
0.0000000000000000e+00 1.6111999999999998e+01
ITEM: ATOMS id type x y z 
5 1 5.38596 5.38772 5.38596 
65 1 5.59703 6.61674 2.41136 
66 1 5.3232 7.33065 3.67794 
68 1 4.85728 6.60008 4.85735 
79 1 5.21721 7.31608 1.18885 
89 1 6.61446 2.41425 5.59708 
90 1 7.33007 3.68023 5.32286 
92 1 6.59882 4.85996 4.85889 
101 1 7.30964 1.19064 5.21359 
109 1 2.41145 5.5996 6.61499 
110 1 3.67666 5.32183 7.32911 
112 1 4.8575 4.86044 6.59851 
121 1 1.1885 5.2167 7.30857 
129 1 6.61262 5.59958 2.41388 
130 1 7.32946 5.32302 3.67861 
137 1 7.30862 5.21533 1.18974 
141 1 2.41137 6.61391 5.59997 
142 1 3.67691 7.32832 5.32321 
149 1 1.18819 7.30817 5.21683 
153 1 5.59655 2.41546 6.61277 
154 1 5.32204 3.68067 7.32916 
161 1 5.21381 1.1909 7.30832 
7 1 6.61548 5.59907 13.6624 
8 1 7.3309 5.32122 12.3979 
10 1 6.60049 4.85912 11.2161 
21 1 7.30904 5.2157 14.8858 
32 1 1.18927 7.3086 10.8602 
40 1 2.41334 6.61534 10.477 
41 1 3.67715 7.33069 10.7528 
43 1 4.85664 6.59878 11.2189 
47 1 5.21154 1.19537 8.77041 
55 1 5.60186 2.41542 9.46655 
56 1 5.32228 3.67883 8.74911 
58 1 4.85842 4.85923 9.47811 
64 1 5.51536 6.55383 16.0934 
75 1 5.38799 5.38776 10.6897 
118 1 6.54896 5.51676 16.0931 
168 1 5.59846 6.6138 13.6659 
169 1 5.31991 7.32603 12.4016 
176 1 5.21566 7.31105 14.8869 
182 1 7.3137 1.18905 10.8631 
186 1 6.61807 2.4114 10.4798 
187 1 7.32866 3.67744 10.7559 
191 1 1.18946 5.21711 8.76853 
195 1 2.41168 5.60046 9.46256 
196 1 3.67701 5.32224 8.74851 
9 1 7.30903 10.8587 1.17737 
19 1 6.61909 10.479 2.40278 
20 1 7.3286 10.7557 3.6713 
22 1 6.60108 11.2164 4.85354 
27 1 1.18852 8.76821 5.21689 
35 1 2.41211 9.46297 5.60031 
36 1 3.67808 8.74918 5.32238 
38 1 4.85783 9.47733 4.85586 
44 1 6.54913 16.0949 5.51505 
50 1 5.59637 13.6621 6.61443 
51 1 5.32358 12.3967 7.32903 
53 1 4.85758 11.2171 6.59932 
62 1 5.21654 14.8857 7.31258 
76 1 5.51321 16.0933 6.55044 
81 1 5.38716 10.6906 5.38666 
167 1 5.22496 8.77647 1.18377 
171 1 5.60375 9.46685 2.41021 
172 1 5.32315 8.75065 3.67435 
180 1 6.61456 13.6617 5.59712 
181 1 7.33012 12.3955 5.32145 
188 1 7.30988 14.8866 5.21391 
194 1 1.18922 10.8603 7.30858 
198 1 2.41462 10.4771 6.61764 
199 1 3.67968 10.7542 7.33411 
17 1 5.3924 10.6931 10.6967 
39 1 6.54863 16.1016 10.5524 
49 1 5.5292 9.53385 16.0901 
73 1 5.21456 8.77176 14.8904 
82 1 5.50874 16.0979 9.52702 
83 1 5.59693 9.45345 13.6666 
84 1 5.31389 8.74694 12.4026 
86 1 4.85534 9.48173 11.2209 
91 1 7.30876 14.8794 10.7854 
99 1 6.61016 13.6356 10.4764 
100 1 7.32555 12.3649 10.701 
102 1 6.64007 11.1685 11.2312 
113 1 6.56706 10.5614 16.0718 
114 1 2.41346 10.4788 9.46499 
115 1 3.68188 10.7548 8.75353 
117 1 4.85991 11.2206 9.48512 
126 1 1.19187 10.8604 8.7687 
131 1 7.32807 10.8238 14.8656 
135 1 6.66418 10.4152 13.6256 
136 1 7.34039 10.6586 12.3711 
144 1 2.41202 9.4649 10.4774 
145 1 3.67788 8.75124 10.7532 
152 1 1.19121 8.76702 10.8598 
158 1 5.21727 14.8853 8.77226 
162 1 5.59188 13.6627 9.46715 
163 1 5.32418 12.3974 8.74996 
3 1 8.77111 5.21755 1.1893 
13 1 9.46531 5.60102 2.41338 
14 1 8.74991 5.32345 3.67845 
16 1 9.48002 4.8599 4.85868 
24 1 16.0955 5.51654 6.55012 
30 1 13.665 6.61472 5.60123 
31 1 12.3998 7.32841 5.32189 
33 1 11.2194 6.59944 4.85785 
42 1 14.8878 7.30751 5.21713 
52 1 10.8599 1.19154 7.30423 
60 1 10.4764 2.41451 6.61497 
61 1 10.7565 3.67756 7.32794 
63 1 11.2182 4.85891 6.59837 
87 1 10.6915 5.38799 5.3876 
98 1 16.0951 6.54964 5.51673 
170 1 10.8579 7.31526 1.18866 
174 1 10.4779 6.61836 2.41061 
175 1 10.7556 7.32955 3.67676 
179 1 8.77086 1.18929 5.21593 
183 1 9.46324 2.41324 5.59992 
184 1 8.74948 3.67931 5.32361 
192 1 13.6649 5.60066 6.6152 
193 1 12.3999 5.32013 7.32934 
200 1 14.8878 5.21684 7.30747 
6 1 16.0956 5.51621 9.52607 
23 1 10.6883 5.38154 10.6861 
59 1 10.5602 6.55234 16.0973 
67 1 10.8587 7.31086 14.89 
77 1 10.4749 6.61104 13.6687 
78 1 10.7649 7.31891 12.4032 
80 1 11.2272 6.59158 11.2204 
93 1 16.0977 6.54812 10.5595 
94 1 9.46404 2.41038 10.4751 
95 1 8.74985 3.67312 10.7538 
97 1 9.4762 4.85537 11.2182 
106 1 8.77044 1.19119 10.8529 
116 1 14.89 5.21536 8.76642 
123 1 9.52948 5.51924 16.0936 
124 1 13.6673 5.59575 9.45999 
125 1 12.4007 5.31956 8.74745 
127 1 11.2187 4.85612 9.47518 
134 1 8.76868 5.21668 14.8893 
138 1 9.46208 5.59864 13.6665 
139 1 8.74985 5.32134 12.3992 
143 1 14.8916 7.3069 10.8609 
147 1 13.6733 6.60639 10.476 
148 1 12.4066 7.31816 10.7502 
156 1 10.4682 2.41305 9.46179 
157 1 10.7526 3.67491 8.74893 
164 1 10.871 1.20772 8.75749 
11 1 10.6867 10.6859 5.38145 
18 1 16.0966 10.5596 6.54843 
29 1 9.52942 16.0955 5.51779 
70 1 10.559 16.0998 6.54968 
71 1 10.4729 9.46193 2.4067 
72 1 10.7551 8.7496 3.67048 
74 1 11.2197 9.47524 4.85291 
85 1 10.8529 8.77063 1.18619 
96 1 8.77179 14.8882 5.21622 
103 1 16.0949 9.52622 5.51579 
104 1 9.4637 13.6655 5.6014 
105 1 8.75103 12.3988 5.32249 
107 1 9.47523 11.219 4.85233 
111 1 14.8911 10.8608 7.30714 
119 1 13.6722 10.4774 6.60637 
120 1 12.4047 10.7549 7.31503 
122 1 11.2198 11.2175 6.59027 
132 1 9.46179 10.473 2.4068 
133 1 8.74888 10.7536 3.67074 
140 1 8.76559 10.8524 1.18732 
146 1 14.8895 8.7661 5.21618 
150 1 13.6666 9.45987 5.59685 
151 1 12.4001 8.74846 5.32044 
155 1 10.864 14.8941 7.30337 
159 1 10.4763 13.671 6.61233 
160 1 10.7604 12.4029 7.31424 
1 1 9.44864 10.469 13.6396 
2 1 8.77109 11.0654 12.4536 
4 1 9.46132 11.1891 11.1413 
12 1 16.1001 10.56 9.52866 
15 1 8.77791 10.8344 14.8746 
25 1 13.6768 9.46208 10.4784 
26 1 12.4185 8.74001 10.7572 
28 1 11.2289 9.45922 11.2188 
34 1 9.5252 16.1175 10.4955 
37 1 14.897 8.76524 10.8631 
45 1 10.5082 13.6664 9.4238 
46 1 10.7821 12.387 8.73526 
48 1 11.2234 11.1872 9.44963 
54 1 10.549 9.52035 16.0892 
57 1 10.8925 14.9031 8.75537 
69 1 10.6596 10.6279 10.6306 
88 1 10.5925 16.1091 9.51032 
108 1 16.0999 9.52769 10.5605 
128 1 9.51619 10.543 16.0951 
165 1 10.3962 9.43155 13.6554 
166 1 10.7523 8.73801 12.3981 
173 1 10.8213 8.76189 14.8821 
177 1 9.40687 13.6465 10.3301 
178 1 8.74098 12.3591 10.6293 
185 1 8.75613 14.8968 10.6812 
189 1 13.679 10.4763 9.46376 
190 1 12.4226 10.7489 8.73517 
197 1 14.8973 10.864 8.76566 
201 2 8.65291 12.2216 12.6521 
202 2 8.45281 13.3087 13.8234 
203 3 8.52949 13.9314 13.1457 
ITEM: TIMESTEP
40
ITEM: NUMBER OF ATOMS
203
ITEM: BOX BOUNDS pp pp pp
0.0000000000000000e+00 1.6114000000000001e+01
0.0000000000000000e+00 1.6113000000000000e+01
0.0000000000000000e+00 1.6111999999999998e+01
ITEM: ATOMS id type x y z 
5 1 5.38057 5.38189 5.37983 
65 1 5.59812 6.61618 2.40904 
66 1 5.32062 7.32933 3.67329 
68 1 4.8587 6.60502 4.85763 
79 1 5.22067 7.31553 1.1871 
89 1 6.61323 2.41148 5.59804 
90 1 7.32707 3.67519 5.32085 
92 1 6.60398 4.86068 4.85921 
101 1 7.3082 1.1879 5.21765 
109 1 2.40969 5.59887 6.61338 
110 1 3.67359 5.32008 7.32689 
112 1 4.85921 4.86042 6.60303 
121 1 1.18741 5.21771 7.30937 
129 1 6.61234 5.59993 2.41037 
130 1 7.32762 5.3211 3.67422 
137 1 7.30933 5.21913 1.1883 
141 1 2.40977 6.61337 5.59901 
142 1 3.67395 7.32776 5.32067 
149 1 1.18742 7.30951 5.21815 
153 1 5.59821 2.41217 6.61141 
154 1 5.32027 3.67547 7.32693 
161 1 5.21684 1.18921 7.30817 
7 1 6.61391 5.59866 13.6652 
8 1 7.32831 5.31983 12.4012 
10 1 6.60554 4.85965 11.2162 
21 1 7.30935 5.21779 14.8888 
32 1 1.18913 7.30814 10.859 
40 1 2.41096 6.6142 10.4778 
41 1 3.67391 7.32867 10.7546 
43 1 4.8585 6.60285 11.2177 
47 1 5.2137 1.19377 8.76735 
55 1 5.60099 2.412 9.46638 
56 1 5.3213 3.67504 8.75045 
58 1 4.85953 4.86004 9.47339 
64 1 5.51637 6.55089 16.0952 
75 1 5.38247 5.38048 10.6955 
118 1 6.54765 5.51683 16.0954 
168 1 5.59859 6.6119 13.6681 
169 1 5.31652 7.32351 12.4047 
176 1 5.21666 7.31081 14.8896 
182 1 7.31151 1.18575 10.8607 
186 1 6.61549 2.40805 10.4804 
187 1 7.3279 3.67374 10.7578 
191 1 1.18801 5.21787 8.76717 
195 1 2.40977 5.59955 9.4642 
196 1 3.6747 5.32011 8.75025 
9 1 7.30962 10.8582 1.17446 
19 1 6.6174 10.4807 2.40034 
20 1 7.3267 10.7585 3.66713 
22 1 6.60479 11.2161 4.85476 
27 1 1.18847 8.76743 5.21842 
35 1 2.41077 9.46421 5.60043 
36 1 3.67499 8.75048 5.31992 
38 1 4.85914 9.47394 4.85699 
44 1 6.54799 16.095 5.51651 
50 1 5.59884 13.6652 6.6125 
51 1 5.32168 12.4009 7.32559 
53 1 4.85968 11.2156 6.60323 
62 1 5.21989 14.8877 7.31034 
76 1 5.51603 16.0947 6.54864 
81 1 5.38218 10.6959 5.37922 
167 1 5.2267 8.77468 1.18314 
171 1 5.6036 9.46729 2.40804 
172 1 5.3212 8.7528 3.6706 
180 1 6.61337 13.6644 5.59826 
181 1 7.32831 12.4006 5.31923 
188 1 7.30924 14.8889 5.21784 
194 1 1.18969 10.8586 7.30889 
198 1 2.41295 10.4772 6.61626 
199 1 3.67604 10.7557 7.33064 
17 1 5.38635 10.694 10.7023 
39 1 6.54614 16.1016 10.5528 
49 1 5.52696 9.53578 16.089 
73 1 5.21504 8.77037 14.891 
82 1 5.50629 16.0997 9.52792 
83 1 5.59762 9.45311 13.6674 
84 1 5.31117 8.74685 12.4046 
86 1 4.8563 9.47819 11.2191 
91 1 7.30656 14.8804 10.7872 
99 1 6.6107 13.6363 10.4761 
100 1 7.32447 12.3642 10.7042 
102 1 6.64662 11.167 11.2297 
113 1 6.56613 10.5606 16.0706 
114 1 2.41165 10.4808 9.46548 
115 1 3.6772 10.7569 8.75434 
117 1 4.86148 11.2173 9.48313 
126 1 1.19065 10.86 8.76686 
131 1 7.32929 10.8171 14.8678 
135 1 6.6685 10.4135 13.6286 
136 1 7.34425 10.6637 12.3712 
144 1 2.40943 9.46607 10.4787 
145 1 3.67288 8.75137 10.7543 
152 1 1.19001 8.76632 10.8596 
158 1 5.21637 14.8888 8.76943 
162 1 5.58781 13.6633 9.46721 
163 1 5.3208 12.3995 8.74912 
3 1 8.76763 5.21976 1.18865 
13 1 9.46527 5.60057 2.41041 
14 1 8.75071 5.32144 3.67468 
16 1 9.47428 4.86053 4.85905 
24 1 16.096 5.51495 6.54741 
30 1 13.6668 6.61322 5.59993 
31 1 12.4028 7.32702 5.32024 
33 1 11.218 6.6042 4.85836 
42 1 14.8898 7.30749 5.21767 
52 1 10.8612 1.19294 7.3024 
60 1 10.4753 2.41244 6.61026 
61 1 10.7573 3.67484 7.32643 
63 1 11.2176 4.85991 6.60288 
87 1 10.697 5.38189 5.38067 
98 1 16.0961 6.54734 5.51502 
170 1 10.857 7.31306 1.18736 
174 1 10.4774 6.6158 2.40862 
175 1 10.7575 7.32785 3.67258 
179 1 8.76768 1.18866 5.21783 
183 1 9.46281 2.41059 5.59822 
184 1 8.75101 3.67588 5.32145 
192 1 13.6671 5.59927 6.61346 
193 1 12.4028 5.31904 7.32666 
200 1 14.8899 5.21727 7.30768 
6 1 16.0967 5.51401 9.52828 
23 1 10.6963 5.37804 10.6949 
59 1 10.562 6.54945 16.0964 
67 1 10.8545 7.31234 14.8906 
77 1 10.4772 6.60958 13.6697 
78 1 10.768 7.31947 12.4052 
80 1 11.2258 6.59564 11.2194 
93 1 16.0984 6.54572 10.5615 
94 1 9.46389 2.40701 10.4767 
95 1 8.75154 3.67071 10.7564 
97 1 9.47335 4.85741 11.2172 
106 1 8.76935 1.18664 10.8466 
116 1 14.8914 5.21564 8.76598 
123 1 9.53031 5.51751 16.095 
124 1 13.6695 5.59377 9.46146 
125 1 12.4036 5.31759 8.75082 
127 1 11.2174 4.858 9.47194 
134 1 8.76801 5.21848 14.8904 
138 1 9.46253 5.59745 13.6682 
139 1 8.75195 5.31916 12.4027 
143 1 14.8941 7.30675 10.8604 
147 1 13.6751 6.6056 10.4772 
148 1 12.4092 7.3188 10.7542 
156 1 10.4705 2.41137 9.46328 
157 1 10.7537 3.67513 8.74979 
164 1 10.874 1.20436 8.75717 
11 1 10.6932 10.6931 5.37426 
18 1 16.098 10.5614 6.54628 
29 1 9.52824 16.0954 5.51424 
70 1 10.56 16.1002 6.54451 
71 1 10.4742 9.4634 2.40437 
72 1 10.7571 8.7509 3.66793 
74 1 11.2178 9.47157 4.85381 
85 1 10.8531 8.76959 1.18201 
96 1 8.76802 14.8902 5.21836 
103 1 16.0965 9.52827 5.51411 
104 1 9.4622 13.6678 5.59908 
105 1 8.75082 12.4026 5.32014 
107 1 9.47098 11.2178 4.85375 
111 1 14.8936 10.8605 7.30701 
119 1 13.6753 10.4795 6.60432 
120 1 12.4083 10.7571 7.31382 
122 1 11.2193 11.2154 6.59319 
132 1 9.46122 10.4743 2.40415 
133 1 8.7497 10.7562 3.66764 
140 1 8.76473 10.851 1.18404 
146 1 14.891 8.76582 5.21647 
150 1 13.6686 9.46123 5.59456 
151 1 12.4036 8.74998 5.31822 
155 1 10.8659 14.8956 7.30106 
159 1 10.4778 13.6726 6.61055 
160 1 10.7648 12.4043 7.31407 
1 1 9.45285 10.4762 13.6392 
2 1 8.7721 11.0822 12.4564 
4 1 9.46006 11.1935 11.1423 
12 1 16.1011 10.5627 9.5304 