ITEM: TIMESTEP
0
ITEM: NUMBER OF ATOMS
74
ITEM: BOX BOUNDS pp pp pp
0.0000000000000000e+00 1.3600000000000000e+01
0.0000000000000000e+00 1.3600000000000000e+01
0.0000000000000000e+00 1.3600000000000000e+01
ITEM: ATOMS id type x y z 
1 1 6.672 0.882 7.682 
2 1 6.673 1.896 8.696 
3 1 6.672 2.763 9.563 
7 1 6.673 5.663 12.463 
8 1 6.672 4.65 11.449 
9 1 6.672 3.783 10.582 
49 1 5.663 6.673 12.463 
50 1 4.65 6.672 11.449 
51 1 3.783 6.672 10.582 
55 1 0.882 6.672 7.682 
56 1 1.896 6.673 8.696 
57 1 2.763 6.672 9.563 
73 2 6.376 1.874 10.546 
74 3 6.376 1.874 11.522 
25 1 0.882 7.682 6.672 
26 1 1.896 8.696 6.673 
27 1 2.763 9.563 6.672 
31 1 5.663 12.463 6.673 
32 1 4.65 11.449 6.672 
33 1 3.783 10.582 6.672 
37 1 6.673 12.463 5.663 
38 1 6.672 11.449 4.65 
39 1 6.672 10.582 3.783 
43 1 6.672 7.682 0.882 
44 1 6.673 8.696 1.896 
45 1 6.672 9.563 2.763 
28 1 5.662 7.683 13.473 
29 1 4.649 8.696 13.472 
30 1 3.781 9.563 13.471 
34 1 0.882 12.462 13.473 
35 1 1.896 11.449 13.472 
36 1 2.763 10.582 13.472 
52 1 5.662 13.473 7.683 
53 1 4.649 13.472 8.696 
54 1 3.781 13.472 9.563 
58 1 0.882 13.472 12.462 
59 1 1.896 13.472 11.449 
60 1 2.763 13.472 10.582 
13 1 7.682 6.672 0.882 
14 1 8.696 6.673 1.896 
15 1 9.563 6.672 2.763 
19 1 12.463 6.673 5.663 
20 1 11.449 6.672 4.65 
21 1 10.582 6.672 3.783 
61 1 12.463 5.663 6.673 
62 1 11.449 4.65 6.672 
63 1 10.582 3.783 6.672 
67 1 7.682 0.882 6.672 
68 1 8.696 1.896 6.673 
69 1 9.563 2.763 6.672 
4 1 13.473 5.662 7.683 
5 1 13.472 4.649 8.696 
6 1 13.471 3.781 9.563 
10 1 13.473 0.883 12.462 
11 1 13.473 1.896 11.449 
12 1 13.472 2.763 10.582 
64 1 7.683 5.662 13.473 
65 1 8.696 4.649 13.472 
66 1 9.563 3.781 13.471 
70 1 12.462 0.883 13.473 
71 1 11.449 1.896 13.473 
72 1 10.582 2.763 13.472 
16 1 7.683 13.473 5.662 
17 1 8.696 13.472 4.649 
18 1 9.563 13.471 3.781 
22 1 12.462 13.473 0.882 
23 1 11.449 13.473 1.896 
24 1 10.582 13.472 2.763 
40 1 13.473 7.683 5.662 
41 1 13.472 8.696 4.649 
42 1 13.471 9.563 3.781 
46 1 13.473 12.462 0.882 
47 1 13.473 11.449 1.896 
48 1 13.472 10.582 2.763 
ITEM: TIMESTEP
10
ITEM: NUMBER OF ATOMS
74
ITEM: BOX BOUNDS pp pp pp
0.0000000000000000e+00 1.3600000000000000e+01
0.0000000000000000e+00 1.3600000000000000e+01
0.0000000000000000e+00 1.3600000000000000e+01
ITEM: ATOMS id type x y z 
1 1 6.67017 0.882838 7.67077 
2 1 6.68673 1.86964 8.62273 
3 1 6.63464 2.65075 9.5937 
7 1 6.6699 5.6978 12.5017 
8 1 6.67859 4.67822 11.4543 
9 1 6.68299 3.83469 10.5789 
49 1 5.65649 6.68036 12.4643 
50 1 4.64433 6.67294 11.4449 
51 1 3.77885 6.67151 10.5776 
55 1 0.881613 6.67206 7.68232 
56 1 1.89513 6.67378 8.69257 
57 1 2.76069 6.67174 9.56167 
73 2 6.38873 1.90983 10.5337 
74 3 6.36799 1.84889 11.5373 
25 1 0.881778 7.68264 6.67189 
26 1 1.89626 8.69374 6.67373 
27 1 2.76166 9.56272 6.67183 
31 1 5.66201 12.4608 6.67207 
32 1 4.64826 11.4474 6.67161 
33 1 3.7813 10.5802 6.67173 
37 1 6.67206 12.4598 5.66068 
38 1 6.67143 11.4493 4.65075 
39 1 6.67208 10.5824 3.78287 
43 1 6.67256 7.68703 0.886811 
44 1 6.67383 8.69693 1.8996 
45 1 6.67185 9.56626 2.7651 
28 1 5.65963 7.69128 13.4788 
29 1 4.64692 8.70009 13.4737 
30 1 3.77777 9.56608 13.4712 
34 1 0.882215 12.463 13.4722 
35 1 1.89513 11.451 13.4697 
36 1 2.76175 10.5823 13.4728 
52 1 5.64894 13.4621 7.68587 
53 1 4.64519 13.47 8.69738 
54 1 3.77804 13.4718 9.56638 
58 1 0.882521 13.4726 12.4614 
59 1 1.89653 13.4706 11.4498 
60 1 2.7637 13.473 10.5808 
13 1 7.68513 6.68014 0.892253 
14 1 8.69742 6.67351 1.90035 
15 1 9.56684 6.67254 2.76615 
19 1 12.4623 6.67243 5.6629 
20 1 11.4497 6.67148 4.65093 
21 1 10.5825 6.6721 3.78302 
61 1 12.4618 5.66177 6.67284 
62 1 11.4488 4.65011 6.67167 
63 1 10.5812 3.78191 6.67219 
67 1 7.69724 0.885212 6.65974 
68 1 8.70133 1.89844 6.66931 
69 1 9.56778 2.768 6.67279 
4 1 13.4718 5.66191 7.68223 
5 1 13.4735 4.64968 8.69659 
6 1 13.4703 3.78164 9.56247 
10 1 13.4737 0.882157 12.4623 
11 1 13.4743 1.89435 11.4485 
12 1 13.4713 2.76342 10.5821 
64 1 7.68894 5.6642 13.4815 
65 1 8.7012 4.64405 13.4728 
66 1 9.56703 3.77716 13.4706 
70 1 12.4637 0.882551 13.4722 
71 1 11.4504 1.89253 13.4739 
72 1 10.5839 2.76153 13.4713 
16 1 7.68335 13.4691 5.6581 
17 1 8.69798 13.4722 4.64712 
18 1 9.56456 13.4705 3.77969 
22 1 12.4633 13.472 0.882543 
23 1 11.4494 13.4739 1.89327 
24 1 10.583 13.4714 2.76255 
40 1 13.4725 7.68253 5.66227 
41 1 13.4735 8.6967 4.64964 
42 1 13.4704 9.56266 3.78146 
46 1 13.4724 12.4627 0.882625 
47 1 13.4737 11.4483 1.89465 
48 1 13.4715 10.582 2.76334 
ITEM: TIMESTEP
20
ITEM: NUMBER OF ATOMS
74
ITEM: BOX BOUNDS pp pp pp
0.0000000000000000e+00 1.3600000000000000e+01
0.0000000000000000e+00 1.3600000000000000e+01
0.0000000000000000e+00 1.3600000000000000e+01
ITEM: ATOMS id type x y z 
1 1 6.66353 0.892441 7.64641 
2 1 6.68156 1.86323 8.61521 
3 1 6.60743 2.57175 9.63408 
7 1 6.67547 5.704 12.5028 
8 1 6.68434 4.70133 11.4292 
9 1 6.69008 3.85392 10.5614 
49 1 5.65641 6.68515 12.4708 
50 1 4.64299 6.67437 11.4462 
51 1 3.77899 6.67096 10.5772 
55 1 0.880657 6.67188 7.68132 
56 1 1.89339 6.67259 8.69258 
57 1 2.76108 6.67203 9.56 
73 2 6.40252 1.95474 10.5693 
74 3 6.35404 1.80347 11.5354 
25 1 0.882109 7.68299 6.67143 
26 1 1.89392 8.69367 6.67257 
27 1 2.76136 9.56099 6.6727 
31 1 5.65739 12.457 6.67369 
32 1 4.64711 11.4445 6.67088 
33 1 3.77876 10.578 6.6711 
37 1 6.67001 12.4588 5.66113 
38 1 6.67175 11.4495 4.65136 
39 1 6.67111 10.5822 3.78238 
43 1 6.672 7.69148 0.891238 
44 1 6.67316 8.70099 1.90173 
45 1 6.67243 9.56917 2.76968 
28 1 5.6574 7.70021 13.4857 
29 1 4.64506 8.70401 13.4767 
30 1 3.77502 9.5695 13.4723 
34 1 0.881856 12.4635 13.4717 
35 1 1.89249 11.4524 13.4715 
36 1 2.76005 10.5846 13.471 
52 1 5.65134 13.4637 7.68263 
53 1 4.64291 13.4659 8.69497 
54 1 3.77861 13.472 9.56654 
58 1 0.882679 13.4722 12.4598 
59 1 1.89884 13.4727 11.4509 
60 1 2.76368 13.4724 10.5802 
13 1 7.68815 6.68396 0.898123 
14 1 8.69864 6.67405 1.90546 
15 1 9.5706 6.67423 2.76966 
19 1 12.4631 6.6748 5.66351 
20 1 11.4531 6.66908 4.65128 
21 1 10.5836 6.67344 3.78551 
61 1 12.4636 5.66218 6.6729 
62 1 11.45 4.65287 6.6731 
63 1 10.5834 3.78376 6.67262 
67 1 7.70113 0.883382 6.6488 
68 1 8.70734 1.89892 6.66159 
69 1 9.5714 2.77077 6.67268 
4 1 13.4719 5.66119 7.685 
5 1 13.4718 4.64591 8.69506 
6 1 13.4716 3.78193 9.56558 
10 1 13.4744 0.884396 12.4612 
11 1 13.4729 1.89428 11.4455 
12 1 13.4721 2.76514 10.5815 
64 1 7.68721 5.66807 13.4855 
65 1 8.70092 4.6453 13.4747 
66 1 9.56555 3.77798 13.4698 
70 1 12.4652 0.882123 13.4714 
71 1 11.4518 1.89227 13.4721 
72 1 10.5844 2.75962 13.4715 
16 1 7.68787 13.4632 5.6491 
17 1 8.69884 13.4668 4.64083 
18 1 9.56901 13.4708 3.77595 
22 1 12.4639 13.4716 0.882286 
23 1 11.4523 13.4723 1.89229 
24 1 10.5846 13.4723 2.75994 
40 1 13.472 7.68618 5.66002 
41 1 13.4723 8.69515 4.64642 
42 1 13.4713 9.56533 3.78183 
46 1 13.4736 12.4588 0.884852 
47 1 13.4734 11.4479 1.89605 
48 1 13.4717 10.5805 2.76381 
ITEM: TIMESTEP
30
ITEM: NUMBER OF ATOMS
74
ITEM: BOX BOUNDS pp pp pp
0.0000000000000000e+00 1.3600000000000000e+01
0.0000000000000000e+00 1.3600000000000000e+01
0.0000000000000000e+00 1.3600000000000000e+01
ITEM: ATOMS id type x y z 
1 1 6.65743 0.902686 7.63364 
2 1 6.67241 1.85827 8.62117 
3 1 6.59957 2.5578 9.64899 
7 1 6.67975 5.70692 12.4886 
8 1 6.69065 4.71502 11.4119 
9 1 6.69073 3.85852 10.5497 
49 1 5.65832 6.68585 12.4737 
50 1 4.64613 6.67564 11.4502 
51 1 3.78154 6.67125 10.5802 
55 1 0.882128 6.67179 7.68288 
56 1 1.8956 6.67245 8.69486 
57 1 2.76258 6.67129 9.5607 
73 2 6.40878 1.97501 10.6009 
74 3 6.33983 1.75809 11.5603 
25 1 0.881749 7.68251 6.67235 
26 1 1.89376 8.69321 6.6718 
27 1 2.76085 9.56061 6.67272 
31 1 5.65769 12.4585 6.67592 
32 1 4.64533 11.4431 6.67167 
33 1 3.7778 10.576 6.67103 
37 1 6.66898 12.4578 5.66092 
38 1 6.67224 11.451 4.65254 
39 1 6.67034 10.5832 3.78435 
43 1 6.6735 7.69157 0.892217 
44 1 6.67267 8.70113 1.90233 
45 1 6.67238 9.5693 2.76986 
28 1 5.65792 7.69816 13.4858 
29 1 4.64577 8.70554 13.4792 
30 1 3.77475 9.57081 13.4728 
34 1 0.881667 12.4643 13.4709 
35 1 1.89171 11.4526 13.4718 
36 1 2.75918 10.5853 13.4706 
52 1 5.64677 13.4619 7.67943 
53 1 4.64586 13.4672 8.69095 
54 1 3.78051 13.4705 9.5639 
58 1 0.884937 13.4738 12.4586 
59 1 1.89874 13.4712 11.4489 
60 1 2.7656 13.4736 10.5811 
13 1 7.68578 6.6817 0.897892 
14 1 8.7002 6.67618 1.90352 
15 1 9.56858 6.67483 2.7712 
19 1 12.4642 6.67396 5.66255 
20 1 11.4514 6.67006 4.65399 
21 1 10.5855 6.6727 3.78465 
61 1 12.4637 5.66275 6.67381 
62 1 11.4515 4.6538 6.67223 
63 1 10.5842 3.78562 6.67437 
67 1 7.70586 0.885749 6.63791 
68 1 8.70861 1.89591 6.65491 
69 1 9.57225 2.76955 6.67164 
4 1 13.4737 5.66067 7.68537 
5 1 13.4701 4.64746 8.69612 
6 1 13.4719 3.78135 9.56458 
10 1 13.4739 0.883637 12.4597 
11 1 13.4751 1.89528 11.447 
12 1 13.4718 2.76396 10.5815 
64 1 7.6845 5.6706 13.4851 
65 1 8.69762 4.64876 13.4749 
66 1 9.56298 3.77998 13.4702 
70 1 12.4647 0.883784 13.4703 
71 1 11.4494 1.89409 13.4723 
72 1 10.5831 2.76078 13.4703 
16 1 7.68869 13.4628 5.64882 
17 1 8.69972 13.4626 4.63601 
18 1 9.57132 13.4697 3.77258 
22 1 12.4654 13.4723 0.880305 
23 1 11.4534 13.4733 1.89037 
24 1 10.5871 13.4723 2.75863 
40 1 13.4731 7.68592 5.65994 
41 1 13.4707 8.69655 4.64737 
42 1 13.4718 9.56481 3.78058 
46 1 13.4734 12.4593 0.883828 
47 1 13.4754 11.4475 1.89548 
48 1 13.4713 10.5813 2.76394 
ITEM: TIMESTEP
40
ITEM: NUMBER OF ATOMS
74
ITEM: BOX BOUNDS pp pp pp
0.0000000000000000e+00 1.3600000000000000e+01
0.0000000000000000e+00 1.3600000000000000e+01
0.0000000000000000e+00 1.3600000000000000e+01
ITEM: ATOMS id type x y z 
1 1 6.63868 0.934501 7.6108 
2 1 6.63859 1.84309 8.65285 
3 1 6.58113 2.51577 9.70246 
7 1 6.70445 5.72615 12.4447 
8 1 6.71327 4.7538 11.3479 
9 1 6.69147 3.8683 10.5191 
49 1 5.66828 6.68932 12.4711 
50 1 4.65089 6.67974 11.4552 
51 1 3.78287 6.67292 10.5891 
55 1 0.886284 6.67 7.68836 
56 1 1.90813 6.67515 8.69444 
57 1 2.76687 6.66778 9.56603 
73 2 6.42684 2.02064 10.729 
74 3 6.2905 1.603 11.6283 
25 1 0.880632 7.6774 6.6739 
26 1 1.8816 8.69869 6.66721 
27 1 2.76184 9.55618 6.67359 
31 1 5.65856 12.4589 6.67365 
32 1 4.64282 11.4409 6.67602 
33 1 3.78078 10.5716 6.67279 
37 1 6.67284 12.4592 5.66239 
38 1 6.66024 11.4468 4.65793 
39 1 6.6701 10.584 3.78752 
43 1 6.67525 7.68772 0.895642 
44 1 6.68712 8.70235 1.90846 
45 1 6.66886 9.57142 2.76779 
28 1 5.65619 7.6953 13.4903 
29 1 4.64842 8.70675 13.4865 
30 1 3.778 9.5718 13.4773 
34 1 0.883428 12.4667 13.4659 
35 1 1.89317 11.4544 13.4666 
36 1 2.75968 10.5837 13.4716 
52 1 5.64364 13.4791 7.66139 
53 1 4.64599 13.4711 8.68168 
54 1 3.79045 13.4689 9.55749 
58 1 0.888535 13.4756 12.4549 
59 1 1.89979 13.4791 11.4422 
60 1 2.77446 13.4692 10.578 
13 1 7.68234 6.67495 0.893867 
14 1 8.69018 6.68309 1.90727 
15 1 9.5672 6.67288 2.76732 
19 1 12.4641 6.67318 5.66235 
20 1 11.4538 6.67799 4.64876 
21 1 10.5819 6.67032 3.78481 
61 1 12.4657 5.66521 6.67533 
62 1 11.4561 4.65393 6.67957 
63 1 10.5864 3.78455 6.67711 
67 1 7.6941 0.897418 6.62089 
68 1 8.70963 1.89613 6.63379 
69 1 9.57593 2.76504 6.66034 
4 1 13.4744 5.66228 7.68762 
5 1 13.4776 4.65129 8.70014 
6 1 13.4702 3.77912 9.56326 
10 1 13.4765 0.883584 12.4589 
11 1 13.4692 1.89841 11.4495 
12 1 13.4744 2.76272 10.5794 
64 1 7.68024 5.67465 13.4692 
65 1 8.69198 4.65353 13.4696 
66 1 9.55576 3.78471 13.4722 
70 1 12.4622 0.890004 13.4638 
71 1 11.4483 1.90373 13.4644 
72 1 10.5752 2.76292 13.4707 
16 1 7.69226 13.4654 5.64444 
17 1 8.70498 13.4566 4.62914 
18 1 9.57269 13.4604 3.76536 
22 1 12.4715 13.4754 0.871935 
23 1 11.4605 13.4757 1.88297 
24 1 10.5914 13.471 2.75099 
40 1 13.4738 7.68361 5.66176 
41 1 13.4758 8.69908 4.65018 
42 1 13.4705 9.56392 3.78015 
46 1 13.4769 12.4623 0.880058 
47 1 13.4681 11.4518 1.89561 
48 1 13.4756 10.5812 2.7603 
ITEM: TIMESTEP
50
ITEM: NUMBER OF ATOMS
74
ITEM: BOX BOUNDS pp pp pp
0.0000000000000000e+00 1.3600000000000000e+01
0.0000000000000000e+00 1.3600000000000000e+01
0.0000000000000000e+00 1.3600000000000000e+01
ITEM: ATOMS id type x y z 
1 1 6.63756 0.937531 7.61285 
2 1 6.63892 1.83957 8.66093 
3 1 6.58115 2.51185 9.71185 
7 1 6.70776 5.73116 12.4407 
8 1 6.71509 4.75674 11.3444 
9 1 6.69226 3.8679 10.5182 
49 1 5.67038 6.69088 12.4695 
50 1 4.65101 6.68204 11.454 
51 1 3.78274 6.67164 10.5887 
55 1 0.887831 6.67101 7.68606 
56 1 1.90347 6.67342 8.69675 
57 1 2.7683 6.66946 9.56479 
73 2 6.42328 2.00628 10.7342 
74 3 6.28862 1.59592 11.6307 
25 1 0.879106 7.68015 6.67418 
26 1 1.88846 8.6943 6.66846 
27 1 2.75918 9.55901 6.67241 
31 1 5.65809 12.46 6.67339 
32 1 4.64485 11.4415 6.67467 
33 1 3.78104 10.5726 6.67482 
37 1 6.67297 12.4607 5.66359 
38 1 6.66385 11.4491 4.65787 
39 1 6.6669 10.584 3.78795 
43 1 6.67621 7.68853 0.894968 
44 1 6.68059 8.70062 1.90731 
45 1 6.67402 9.57138 2.7696 
28 1 5.65777 7.69536 13.4918 
29 1 4.64799 8.70583 13.4866 
30 1 3.77827 9.57111 13.4786 
34 1 0.883606 12.4674 13.4656 
35 1 1.8932 11.4536 13.4661 
36 1 2.76038 10.5851 13.4714 
52 1 5.64346 13.4827 7.65938 
53 1 4.64598 13.4736 8.68022 
54 1 3.78974 13.468 9.55784 
58 1 0.889179 13.4761 12.454 
59 1 1.90245 13.4761 11.4426 
60 1 2.77392 13.4713 10.5773 
13 1 7.68218 6.67459 0.893835 
14 1 8.69273 6.678 1.90482 
15 1 9.56407 6.67456 2.76883 
19 1 12.464 6.67338 5.66254 
20 1 11.4522 6.67474 4.64974 
21 1 10.5835 6.67229 3.78347 
61 1 12.4651 5.66543 6.67596 
62 1 11.4552 4.65297 6.67878 
63 1 10.5875 3.78375 6.6767 
67 1 7.6899 0.900664 6.62166 
68 1 8.70728 1.89733 6.6347 
69 1 9.57591 2.76452 6.65813 
4 1 13.4754 5.66378 7.687 
5 1 13.4753 4.65065 8.69812 
6 1 13.4727 3.78091 9.56329 
10 1 13.4764 0.883848 12.4587 
11 1 13.4721 1.89715 11.4477 
12 1 13.4721 2.76372 10.5797 
64 1 7.68154 5.67678 13.4661 
65 1 8.69233 4.65363 13.4678 
66 1 9.55538 3.78339 13.4718 
70 1 12.4626 0.88961 13.4643 
71 1 11.4476 1.90209 13.4656 
72 1 10.5761 2.76398 13.4696 
16 1 7.69084 13.4669 5.64538 
17 1 8.70327 13.4572 4.62998 
18 1 9.57247 13.4598 3.76606 
22 1 12.4709 13.4762 0.87148 
23 1 11.4595 13.4773 1.8834 
24 1 10.5913 13.4691 2.75059 
40 1 13.4724 7.68407 5.66074 
41 1 13.4742 8.69838 4.64827 
42 1 13.4728 9.56485 3.78003 
46 1 13.4771 12.4623 0.879218 
47 1 13.4718 11.4508 1.89381 
48 1 13.4726 10.5828 2.76076 
ITEM: TIMESTEP
60
ITEM: NUMBER OF ATOMS
74
ITEM: BOX BOUNDS pp pp pp
0.0000000000000000e+00 1.3600000000000000e+01
0.0000000000000000e+00 1.3600000000000000e+01
0.0000000000000000e+00 1.3600000000000000e+01
ITEM: ATOMS id type x y z 
1 1 6.63635 0.940034 7.61925 
2 1 6.64006 1.8362 8.67535 
3 1 6.5831 2.50176 9.72791 
7 1 6.71339 5.73919 12.4337 
8 1 6.71809 4.76079 11.3407 
9 1 6.69391 3.8653 10.5205 
49 1 5.67416 6.69608 12.4652 
50 1 4.65101 6.68317 11.4515 
51 1 3.78345 6.67311 10.5865 
55 1 0.886909 6.67305 7.68348 
56 1 1.89952 6.67084 8.69714 
57 1 2.76659 6.67087 9.56453 
73 2 6.41654 1.97749 10.7345 
74 3 6.28579 1.58587 11.6363 
25 1 0.879497 7.68165 6.67213 
26 1 1.89312 8.69287 6.67282 
27 1 2.76041 9.55978 6.67054 
31 1 5.65712 12.465 6.67209 
32 1 4.64701 11.4438 6.68061 
33 1 3.78116 10.5757 6.67232 
37 1 6.67387 12.4633 5.66446 
38 1 6.6679 11.4522 4.65652 
39 1 6.66718 10.5837 3.78885 
43 1 6.67608 7.68779 0.895122 
44 1 6.67573 8.70068 1.9058 
45 1 6.67555 9.56938 2.77281 
28 1 5.65973 7.69538 13.4923 
29 1 4.64766 8.70437 13.4872 
30 1 3.7784 9.57002 13.4802 
34 1 0.883347 12.4674 13.4651 
35 1 1.89389 11.4535 13.4678 
36 1 2.76162 10.5863 13.4706 
52 1 5.64134 13.4869 7.65633 
53 1 4.64572 13.4774 8.67762 
54 1 3.78889 13.4692 9.55648 
58 1 0.889845 13.4765 12.4533 
59 1 1.90504 13.4734 11.4431 
60 1 2.77402 13.4718 10.5771 
13 1 7.68215 6.67367 0.892367 
14 1 8.69501 6.67192 1.90175 
15 1 9.5624 6.67501 2.76938 
19 1 12.4639 6.67349 5.66256 
20 1 11.4503 6.67196 4.65114 
21 1 10.5836 6.67412 3.78301 
61 1 12.4633 5.66626 6.67641 
62 1 11.4552 4.65092 6.67646 
63 1 10.5888 3.78223 6.67467 
67 1 7.68381 0.906327 6.62354 
68 1 8.70214 1.90081 6.63669 
69 1 9.57512 2.76344 6.656 
4 1 13.4759 5.66488 7.68503 
5 1 13.4737 4.65102 8.69622 
6 1 13.4737 3.78298 9.56285 
10 1 13.4768 0.884071 12.4575 
11 1 13.475 1.89641 11.4455 
12 1 13.4716 2.76503 10.5793 
64 1 7.68494 5.68055 13.4603 
65 1 8.69391 4.65403 13.4636 
66 1 9.55489 3.78207 13.4697 
70 1 12.4641 0.888855 13.4644 
71 1 11.4472 1.89946 13.4678 
72 1 10.5775 2.76394 13.4685 
16 1 7.68894 13.4733 5.64788 
17 1 8.70127 13.4598 4.63224 
18 1 9.57126 13.459 3.76769 
22 1 12.4718 13.478 0.873142 
23 1 11.4554 13.4721 1.88257 
24 1 10.5909 13.4697 2.75219 
40 1 13.4715 7.6849 5.65969 
41 1 13.4722 8.6984 4.64624 
42 1 13.4736 9.56584 3.77942 
46 1 13.4765 12.4634 0.877827 
47 1 13.4752 11.4504 1.89151 
48 1 13.4717 10.585 2.76022 
ITEM: TIMESTEP
70
ITEM: NUMBER OF ATOMS
74
ITEM: BOX BOUNDS pp pp pp
0.0000000000000000e+00 1.3600000000000000e+01
0.0000000000000000e+00 1.3600000000000000e+01
0.0000000000000000e+00 1.3600000000000000e+01
ITEM: ATOMS id type x y z 
1 1 6.63492 0.943356 7.62459 
2 1 6.64128 1.83164 8.68757 
3 1 6.58582 2.48816 9.7467 
7 1 6.72147 5.74759 12.4239 
8 1 6.72288 4.76439 11.3348 
9 1 6.69615 3.85876 10.5261 
49 1 5.67555 6.69905 12.4621 
50 1 4.6597 6.69513 11.4404 
51 1 3.77988 6.67187 10.5887 
55 1 0.885236 6.67386 7.68239 
56 1 1.89837 6.67182 8.69585 
57 1 2.76376 6.66936 9.56484 
73 2 6.41127 1.95038 10.7448 
74 3 6.27819 1.56195 11.6481 
25 1 0.880625 7.68216 6.67138 
26 1 1.89327 8.69498 6.66823 
27 1 2.76497 9.55786 6.67439 
31 1 5.65736 12.467 6.67131 
32 1 4.64863 11.4465 6.66824 
33 1 3.78076 10.5798 6.6782 
37 1 6.67364 12.4668 5.66504 
38 1 6.67047 11.4537 4.65675 
39 1 6.67088 10.585 3.79084 
43 1 6.67573 7.68511 0.897177 
44 1 6.67805 8.69956 1.90703 
45 1 6.672 9.56749 2.77444 
28 1 5.66071 7.69454 13.4912 
29 1 4.64912 8.70443 13.4878 
30 1 3.77894 9.56954 13.4809 
34 1 0.883294 12.4675 13.465 
35 1 1.89676 11.4557 13.4652 
36 1 2.76045 10.5851 13.4741 
52 1 5.6394 13.4932 7.65514 
53 1 4.64454 13.4829 8.67665 
54 1 3.78552 13.4712 9.55524 
58 1 0.888817 13.4774 12.4527 
59 1 1.90818 13.4686 11.4466 
60 1 2.77228 13.4727 10.5763 
13 1 7.68213 6.67311 0.889658 
14 1 8.69427 6.67303 1.90026 
15 1 9.5629 6.6706 2.76675 
19 1 12.4634 6.67577 5.66174 
20 1 11.4507 6.67537 4.64908 
21 1 10.5803 6.67239 3.7852 
61 1 12.4626 5.66652 6.67469 
62 1 11.4559 4.65042 6.67439 
63 1 10.5905 3.78051 6.67096 
67 1 7.67772 0.911742 6.62508 
68 1 8.69822 1.90512 6.63718 
69 1 9.57396 2.76517 6.65527 
4 1 13.4739 5.66546 7.68384 
5 1 13.4763 4.65201 8.69577 
6 1 13.4716 3.78394 9.56203 
10 1 13.4769 0.884111 12.4568 
11 1 13.4739 1.89783 11.446 
12 1 13.4744 2.76487 10.5779 
64 1 7.68904 5.68487 13.4519 
65 1 8.69663 4.65542 13.4572 
66 1 9.55579 3.78193 13.4656 
70 1 12.4645 0.887925 13.4659 
71 1 11.4484 1.8998 13.4649 
72 1 10.5761 2.76146 13.4704 
16 1 7.68515 13.4777 5.64846 
17 1 8.69923 13.4652 4.63373 
18 1 9.56931 13.4588 3.76984 
22 1 12.4703 13.4789 0.873864 
23 1 11.4535 13.4698 1.8831 
24 1 10.59 13.468 2.75325 
40 1 13.4718 7.6855 5.65973 
41 1 13.4724 8.6987 4.64543 
42 1 13.4717 9.56637 3.77902 
46 1 13.4772 12.4633 0.876768 
47 1 13.4735 11.4526 1.89202 
48 1 13.475 10.5846 2.75841 
ITEM: TIMESTEP
80
ITEM: NUMBER OF ATOMS
74
ITEM: BOX BOUNDS pp pp pp
0.0000000000000000e+00 1.3600000000000000e+01
0.0000000000000000e+00 1.3600000000000000e+01
0.0000000000000000e+00 1.3600000000000000e+01
ITEM: ATOMS id type x y z 
1 1 6.63238 0.949112 7.6327 
2 1 6.64282 1.82265 8.71096 
3 1 6.59103 2.46246 9.77892 
7 1 6.73289 5.76174 12.4061 
8 1 6.73085 4.76747 11.3264 
9 1 6.70034 3.84481 10.5368 
49 1 5.68863 6.71313 12.4473 
50 1 4.65885 6.69661 11.4396 
51 1 3.78465 6.68092 10.5806 
55 1 0.883732 6.67524 7.68005 
56 1 1.8949 6.67255 8.69577 
57 1 2.75914 6.66821 9.56558 
73 2 6.40357 1.90691 10.7656 
74 3 6.26377 1.51798 11.6672 
25 1 0.883051 7.68372 6.6678 
26 1 1.89687 8.69663 6.66937 
27 1 2.76772 9.56017 6.67731 
31 1 5.65507 12.4767 6.66789 
32 1 4.64923 11.4502 6.66531 
33 1 3.78398 10.583 6.67666 
37 1 6.67402 12.4717 5.66461 
38 1 6.6731 11.4566 4.65636 
39 1 6.67507 10.5847 3.79224 
43 1 6.67462 7.68246 0.897509 
44 1 6.67638 8.69592 1.91194 
45 1 6.67257 9.56512 2.77667 
28 1 5.66385 7.69441 13.4905 
29 1 4.65043 8.70387 13.4888 
30 1 3.77998 9.56789 13.4843 
34 1 0.884185 12.4679 13.4649 
35 1 1.89794 11.4556 13.4661 
36 1 2.76229 10.585 13.4753 
52 1 5.63444 13.4996 7.6511 
53 1 4.63969 13.4877 8.67352 
54 1 3.783 13.478 9.55104 
58 1 0.888784 13.4777 12.4541 
59 1 1.90702 13.4674 11.4467 
60 1 2.77281 13.4702 10.5774 
13 1 7.68333 6.6735 0.883667 
14 1 8.69424 6.66862 1.89659 
15 1 9.56053 6.66675 2.76462 
19 1 12.4618 6.67827 5.66085 
20 1 11.4486 6.67717 4.64845 
21 1 10.5784 6.6712 3.78462 
61 1 12.4631 5.66819 6.6709 
62 1 11.457 4.64994 6.67068 
63 1 10.5929 3.77913 6.66514 
67 1 7.66923 0.922225 6.62745 
68 1 8.69133 1.91166 6.63893 
69 1 9.57092 2.76739 6.65281 
4 1 13.4733 5.66726 7.68149 
5 1 13.4753 4.65414 8.69494 
6 1 13.4735 3.78523 9.56039 
10 1 13.4764 0.885046 12.457 
11 1 13.475 1.8984 11.4447 
12 1 13.4749 2.7652 10.5776 
64 1 7.69795 5.69398 13.4388 
65 1 8.69961 4.65919 13.4463 
66 1 9.55584 3.78244 13.4596 
70 1 12.4661 0.887817 13.4652 
71 1 11.4476 1.89839 13.4652 
72 1 10.5756 2.76009 13.4682 
16 1 7.68046 13.4905 5.65018 
17 1 8.69652 13.4716 4.63617 
18 1 9.56681 13.4616 3.77213 
22 1 12.4671 13.4765 0.873434 
23 1 11.4546 13.4697 1.888 
24 1 10.5858 13.4629 2.75344 
40 1 13.4709 7.68707 5.65858 
41 1 13.4733 8.69955 4.64392 
42 1 13.4711 9.5675 3.77739 
46 1 13.4749 12.4661 0.876847 
47 1 13.4746 11.4531 1.89038 
48 1 13.4755 10.5857 2.75749 
ITEM: TIMESTEP
90
ITEM: NUMBER OF ATOMS
74
ITEM: BOX BOUNDS pp pp pp
0.0000000000000000e+00 1.3600000000000000e+01
0.0000000000000000e+00 1.3600000000000000e+01
0.0000000000000000e+00 1.3600000000000000e+01
ITEM: ATOMS id type x y z 
1 1 6.63173 0.951657 7.63529 
2 1 6.64281 1.81642 8.71633 
3 1 6.5933 2.45397 9.78837 
7 1 6.73617 5.76433 12.4003 
8 1 6.73198 4.7633 11.3278 
9 1 6.7017 3.83725 10.5424 
49 1 5.69207 6.71571 12.443 
50 1 4.66139 6.69692 11.4374 
51 1 3.78394 6.68114 10.5817 
55 1 0.884283 6.67653 7.67886 
56 1 1.89362 6.67052 8.6982 
57 1 2.76251 6.6737 9.56309 
73 2 6.40387 1.90084 10.7744 
74 3 6.25818 1.50347 11.6707 
25 1 0.882842 7.68445 6.66724 
26 1 1.89904 8.69491 6.67479 
27 1 2.76453 9.56299 6.67355 
31 1 5.65496 12.478 6.66447 
32 1 4.64432 11.4554 6.67379 
33 1 3.78764 10.5786 6.67154 
37 1 6.67519 12.474 5.66084 
38 1 6.67519 11.4583 4.65488 
39 1 6.67315 10.5842 3.79369 
43 1 6.67396 7.68261 0.897819 
44 1 6.67487 8.69632 1.91162 
45 1 6.67625 9.56363 2.77877 
28 1 5.66542 7.69622 13.4882 
29 1 4.65105 8.70404 13.4891 
30 1 3.77964 9.56759 13.4856 
34 1 0.884547 12.4676 13.4653 
35 1 1.89597 11.4535 13.4713 
36 1 2.76362 10.5865 13.4733 
52 1 5.63352 13.5007 7.65084 
53 1 4.63482 13.4873 8.66923 
54 1 3.78332 13.4774 9.55303 
58 1 0.888859 13.4766 12.4552 
59 1 1.90292 13.4743 11.443 
60 1 2.77352 13.4692 10.5783 
13 1 7.68477 6.67345 0.881023 
14 1 8.69529 6.66665 1.89456 
15 1 9.55894 6.66684 2.76567 
19 1 12.4618 6.67866 5.66086 
20 1 11.4463 6.67361 4.64956 
21 1 10.5792 6.67245 3.78165 
61 1 12.4646 5.66859 6.67054 
62 1 11.4573 4.65075 6.66828 
63 1 10.5922 3.7806 6.665 
67 1 7.66827 0.923753 6.62752 
68 1 8.69058 1.91393 6.63944 
69 1 9.57145 2.76945 6.65176 
4 1 13.4742 5.66817 7.68154 
5 1 13.4727 4.65276 8.69301 
6 1 13.4756 3.7861 9.5608 
10 1 13.4762 0.885 12.458 
11 1 13.4769 1.89769 11.4439 
12 1 13.4734 2.76604 10.5781 
64 1 7.69947 5.69731 13.4344 
65 1 8.70036 4.66163 13.4437 
66 1 9.55519 3.78394 13.4573 
70 1 12.4649 0.888015 13.4652 
71 1 11.4448 1.89649 13.4683 
72 1 10.5766 2.76191 13.4641 
16 1 7.67906 13.4918 5.64917 
17 1 8.69597 13.475 4.63619 
18 1 9.56599 13.4629 3.77242 
22 1 12.4657 13.4764 0.87207 
23 1 11.4547 13.4728 1.88876 
24 1 10.5855 13.4614 2.75373 
40 1 13.4706 7.68845 5.65925 
41 1 13.4768 8.69911 4.64295 
42 1 13.4714 9.56821 3.77787 
46 1 13.4755 12.4668 0.876511 
47 1 13.4761 11.4517 1.8888 
48 1 13.4727 10.5866 2.75795 
ITEM: TIMESTEP
100
ITEM: NUMBER OF ATOMS
74
ITEM: BOX BOUNDS pp pp pp
0.0000000000000000e+00 1.3600000000000000e+01
0.0000000000000000e+00 1.3600000000000000e+01
0.0000000000000000e+00 1.3600000000000000e+01
ITEM: ATOMS id type x y z 
1 1 6.63135 0.951562 7.63592 
2 1 6.64399 1.81277 8.72094 
3 1 6.59546 2.44751 9.79494 
7 1 6.73856 5.76596 12.3979 
8 1 6.73308 4.76092 11.3279 
9 1 6.70246 3.83205 10.5466 
49 1 5.6954 6.71738 12.4399 
50 1 4.66067 6.69911 11.4375 
51 1 3.78664 6.683 10.579 
55 1 0.883616 6.67531 7.68003 
56 1 1.89571 6.67486 8.6955 
57 1 2.76045 6.67216 9.56479 
73 2 6.40338 1.89312 10.7804 
74 3 6.25384 1.49211 11.6748 
25 1 0.882499 7.68447 6.66955 
26 1 1.89765 8.69643 6.66988 
27 1 2.7679 9.56047 6.67465 
31 1 5.65407 12.4789 6.66423 
32 1 4.64646 11.4542 6.66671 
33 1 3.78423 10.5824 6.67555 
37 1 6.67367 12.4764 5.66004 
38 1 6.67404 11.4578 4.65616 
39 1 6.6761 10.5852 3.79377 
43 1 6.67421 7.6836 0.896312 
44 1 6.67724 8.69362 1.91453 
45 1 6.67409 9.5641 2.77848 
28 1 5.66633 7.69677 13.4869 
29 1 4.65197 8.70486 13.4885 
30 1 3.78042 9.56811 13.485 
34 1 0.883522 12.4674 13.4652 
35 1 1.89911 11.4567 13.4692 
36 1 2.76095 10.5841 13.4766 
52 1 5.63086 13.5026 7.6494 
53 1 4.63673 13.4875 8.67116 
54 1 3.78073 13.4752 9.55141 
58 1 0.888113 13.4782 12.4551 
59 1 1.9039 13.4709 11.4445 
60 1 2.77127 13.4746 10.577 
13 1 7.68467 6.67443 0.880149 
14 1 8.69513 6.66793 1.89361 
15 1 9.55973 6.66594 2.76411 
19 1 12.4622 6.67953 5.65967 
20 1 11.4478 6.67643 4.64786 
21 1 10.5777 6.67 3.78362 
61 1 12.4643 5.66876 6.66941 
62 1 11.4574 4.65092 6.66803 
63 1 10.5918 3.78137 6.66356 
67 1 7.6672 0.92548 6.62831 
68 1 8.68981 1.91503 6.63936 
69 1 9.57047 2.77068 6.65191 
4 1 13.4733 5.66676 7.68099 
5 1 13.4751 4.65379 8.69455 
6 1 13.4731 3.78508 9.56003 
10 1 13.4757 0.885382 12.4579 
11 1 13.4749 1.89889 11.4453 
12 1 13.4758 2.76571 10.5776 
64 1 7.70159 5.69928 13.432 
65 1 8.70192 4.66327 13.4406 
66 1 9.55626 3.78509 13.4545 
70 1 12.4639 0.887636 13.4658 
71 1 11.4457 1.89827 13.4648 
72 1 10.5748 2.76092 13.4655 
16 1 7.6775 13.4939 5.64858 
17 1 8.69559 13.4763 4.63654 
18 1 9.56595 13.4639 3.7732 
22 1 12.466 13.4775 0.8733 
23 1 11.453 13.4692 1.88754 
24 1 10.5856 13.4644 2.75417 
40 1 13.4741 7.68735 5.65905 
41 1 13.4715 8.70109 4.64548 
42 1 13.4742 9.56727 3.77744 
46 1 13.4758 12.4664 0.875965 
47 1 13.4734 11.4533 1.89006 
48 1 13.4743 10.5855 2.75657 
ITEM: TIMESTEP
110
ITEM: NUMBER OF ATOMS
74
ITEM: BOX BOUNDS pp pp pp
0.0000000000000000e+00 1.3600000000000000e+01
0.0000000000000000e+00 1.3600000000000000e+01
0.0000000000000000e+00 1.3600000000000000e+01
ITEM: ATOMS id type x y z 
1 1 6.63066 0.95124 7.63861 
2 1 6.64507 1.80596 8.72977 
3 1 6.60025 2.43506 9.80688 
7 1 6.74145 5.76856 12.3927 
8 1 6.73477 4.75726 11.3298 
9 1 6.70425 3.82336 10.5538 
49 1 5.69811 6.72261 12.4373 
50 1 4.66634 6.70107 11.4324 
51 1 3.78605 6.68593 10.5803 
55 1 0.883602 6.6784 7.67909 
56 1 1.89504 6.67257 8.69656 
57 1 2.76267 6.67596 9.56256 
73 2 6.40234 1.87817 10.7904 
74 3 6.24601 1.47132 11.6818 
25 1 0.882795 7.68521 6.6674 
26 1 1.89946 8.69507 6.67452 
27 1 2.76557 9.56297 6.67265 
31 1 5.65296 12.4823 6.66058 
32 1 4.64336 11.4584 6.67048 
33 1 3.78777 10.5809 6.67091 
37 1 6.67204 12.4791 5.65905 
38 1 6.67586 11.4601 4.65423 
39 1 6.6739 10.5848 3.79494 
43 1 6.67613 7.68289 0.897483 
44 1 6.67452 8.69617 1.91224 
45 1 6.67908 9.56078 2.78181 
28 1 5.66945 7.6989 13.4842 
29 1 4.65277 8.70518 13.4869 
30 1 3.78031 9.5676 13.4875 
34 1 0.885265 12.4689 13.4655 
35 1 1.89466 11.4523 13.4724 
36 1 2.76406 10.5872 13.4753 
52 1 5.6307 13.5039 7.6478 
53 1 4.63268 13.4854 8.66816 
54 1 3.77994 13.4799 9.55078 
58 1 0.888344 13.4778 12.4566 
59 1 1.9005 13.4772 11.442 
60 1 2.77093 13.4705 10.5778 
13 1 7.68665 6.67666 0.877634 
14 1 8.69581 6.66746 1.89233 
15 1 9.55887 6.66481 2.76397 
19 1 12.4621 6.67918 5.65945 
20 1 11.4462 6.67336 4.64825 
21 1 10.5787 6.6716 3.78137 
61 1 12.466 5.6683 6.66955 
62 1 11.4567 4.65264 6.66606 
63 1 10.5915 3.78278 6.66241 
67 1 7.6651 0.927479 6.62884 
68 1 8.68743 1.91745 6.64018 
69 1 9.56879 2.77213 6.65104 
4 1 13.4749 5.66838 7.68062 
5 1 13.4715 4.6519 8.69176 
6 1 13.4765 3.78649 9.56053 
10 1 13.4748 0.885848 12.459 
11 1 13.4771 1.89768 11.444 
12 1 13.473 2.76659 10.5787 
64 1 7.70419 5.70358 13.4257 
65 1 8.70353 4.66619 13.4367 
66 1 9.55659 3.78683 13.4515 
70 1 12.4636 0.887651 13.4648 
71 1 11.4434 1.89673 13.4672 
72 1 10.5757 2.76266 13.4606 
16 1 7.67553 13.498 5.6487 
17 1 8.69426 13.4802 4.63675 
18 1 9.56473 13.467 3.77364 
22 1 12.4658 13.476 0.873499 
23 1 11.451 13.4719 1.88701 
24 1 10.5859 13.4632 2.7559 
40 1 13.4713 7.68801 5.65812 
41 1 13.4757 8.70227 4.64534 
42 1 13.4724 9.56677 3.77554 
46 1 13.4738 12.4667 0.876044 
47 1 13.4766 11.4524 1.88891 
48 1 13.4729 10.5874 2.75813 
ITEM: TIMESTEP
120
ITEM: NUMBER OF ATOMS
74
ITEM: BOX BOUNDS pp pp pp
0.0000000000000000e+00 1.3600000000000000e+01
0.0000000000000000e+00 1.3600000000000000e+01
0.0000000000000000e+00 1.3600000000000000e+01
ITEM: ATOMS id type x y z 
1 1 6.63074 0.951387 7.63936 
2 1 6.64612 1.80408 8.73226 
3 1 6.60133 2.43224 9.81037 
7 1 6.74224 5.76925 12.3916 
8 1 6.73485 4.75614 11.3299 
9 1 6.70477 3.82084 10.5557 
49 1 5.69984 6.72228 12.4354 
50 1 4.66567 6.70347 11.4328 
51 1 3.78756 6.6859 10.5785 
55 1 0.883386 6.67703 7.67962 
56 1 1.89541 6.6745 8.69597 
57 1 2.76202 6.67565 9.56302 
73 2 6.40208 1.87387 10.793 
74 3 6.24393 1.46568 11.6834 
25 1 0.882697 7.68513 6.66854 
26 1 1.89874 8.69612 6.67203 
27 1 2.76706 9.56175 6.67339 
31 1 5.65215 12.4829 6.66047 
32 1 4.64439 11.4574 6.6677 
33 1 3.786 10.5827 6.67212 
37 1 6.67187 12.4804 5.65821 
38 1 6.67518 11.4601 4.65483 
39 1 6.67571 10.585 3.79513 
43 1 6.67537 7.68375 0.896123 
44 1 6.67722 8.69473 1.91387 
45 1 6.6768 9.56155 2.78125 
28 1 5.66975 7.69926 13.4837 
29 1 4.65358 8.7059 13.4872 
30 1 3.78074 9.56794 13.4863 
34 1 0.884564 12.4685 13.4657 