LAMMPS (3 Mar 2020)
# Alpha
clear
units		real
dimension 3
boundary        p p p
atom_style	charge
newton on
read_data       OOH_2.lmp
  orthogonal box = (0 0 0) to (11 11.002 11)
  2 by 2 by 2 MPI processor grid
  reading atoms ...
  51 atoms
  read_data CPU = 0.00243099 secs

timestep 0.25

# ---------- Define Interatomic Potential ---------------------
pair_style      reax/c NULL checkqeq no
pair_coeff      * * ffield.reax C H O
WARNING: Changed valency_val to valency_boc for X (../reaxc_ffield.cpp:315)
fix             2 all qeq/reax 1 0.0 10.0 1.0e-6 reax/c

#------------ Equilibration of the system -------------------------
reset_timestep 0

dump 1 all custom 10 min.lammpstrj id type x y z

minimize 1.0e-8 1.0e-8 100000 100000
WARNING: Using 'neigh_modify every 1 delay 0 check yes' setting during minimization (../min.cpp:190)
Neighbor list info ...
  update every 1 steps, delay 0 steps, check yes
  max neighbors/atom: 2000, page size: 100000
  master list distance cutoff = 12
  ghost atom cutoff = 12
  binsize = 6, bins = 2 2 2
  2 neighbor lists, perpetual/occasional/extra = 2 0 0
  (1) pair reax/c, perpetual
      attributes: half, newton off, ghost
      pair build: half/bin/newtoff/ghost
      stencil: half/ghost/bin/3d/newtoff
      bin: standard
  (2) fix qeq/reax, perpetual, copy from (1)
      attributes: half, newton off, ghost
      pair build: copy
      stencil: none
      bin: none
Per MPI rank memory allocation (min/avg/max) = 25.05 | 25.41 | 25.89 Mbytes
Step Temp E_pair E_mol TotEng Press 
       0            0   -8707.7062            0   -8707.7062    124709.68 
     178            0   -8890.1436            0   -8890.1436    30818.966 
Loop time of 8.21395 on 8 procs for 178 steps with 51 atoms

98.9% CPU use with 8 MPI tasks x no OpenMP threads

Minimization stats:
  Stopping criterion = energy tolerance
  Energy initial, next-to-last, final = 
        -8707.70621658     -8890.14354061     -8890.14358451
  Force two-norm initial, final = 1208.43 55.0989
  Force max component initial, final = 271.515 12.6309
  Final line search alpha, max atom move = 1.41007e-08 1.78104e-07
  Iterations, force evaluations = 178 1593

MPI task timing breakdown:
Section |  min time  |  avg time  |  max time  |%varavg| %total
---------------------------------------------------------------
Pair    | 6.7506     | 6.8794     | 7.0783     |   3.8 | 83.75
Neigh   | 0          | 0          | 0          |   0.0 |  0.00
Comm    | 0.084433   | 0.28291    | 0.41186    |  18.9 |  3.44
Output  | 0.00047004 | 0.00064713 | 0.0010741  |   0.0 |  0.01
Modify  | 1.0347     | 1.0349     | 1.0352     |   0.0 | 12.60
Other   |            | 0.01609    |            |       |  0.20

Nlocal:    6.375 ave 9 max 6 min
Histogram: 7 0 0 0 0 0 0 0 0 1
Nghost:    978.75 ave 1004 max 958 min
Histogram: 1 0 2 1 1 0 2 0 0 1
Neighs:    1822.62 ave 2514 max 1714 min
Histogram: 7 0 0 0 0 0 0 0 0 1

Total # of neighbors = 14581
Ave neighs/atom = 285.902
Neighbor list builds = 0
Dangerous builds = 0

###
min_style cg
minimize 1.0e-8 1.0e-8 100000 100000
WARNING: Using 'neigh_modify every 1 delay 0 check yes' setting during minimization (../min.cpp:190)
Per MPI rank memory allocation (min/avg/max) = 25.05 | 25.41 | 25.89 Mbytes
Step Temp E_pair E_mol TotEng Press 
     178            0   -8890.1436            0   -8890.1436    30818.961 
     179            0   -8890.1437            0   -8890.1437    30819.027 
Loop time of 0.102217 on 8 procs for 1 steps with 51 atoms

99.3% CPU use with 8 MPI tasks x no OpenMP threads

Minimization stats:
  Stopping criterion = energy tolerance
  Energy initial, next-to-last, final = 
        -8890.14358547     -8890.14358547     -8890.14366901
  Force two-norm initial, final = 55.0989 55.8079
  Force max component initial, final = 12.6309 12.5119
  Final line search alpha, max atom move = 6.04027e-08 7.55751e-07
  Iterations, force evaluations = 1 20

MPI task timing breakdown:
Section |  min time  |  avg time  |  max time  |%varavg| %total
---------------------------------------------------------------
Pair    | 0.086697   | 0.088339   | 0.090673   |   0.4 | 86.42
Neigh   | 0          | 0          | 0          |   0.0 |  0.00
Comm    | 0.0010136  | 0.0033496  | 0.0049981  |   2.2 |  3.28
Output  | 0          | 0          | 0          |   0.0 |  0.00
Modify  | 0.010256   | 0.010266   | 0.010275   |   0.0 | 10.04
Other   |            | 0.0002624  |            |       |  0.26

Nlocal:    6.375 ave 9 max 6 min
Histogram: 7 0 0 0 0 0 0 0 0 1
Nghost:    973.5 ave 995 max 955 min
Histogram: 1 1 1 0 2 0 1 0 1 1
Neighs:    1821.88 ave 2501 max 1714 min
Histogram: 7 0 0 0 0 0 0 0 0 1

Total # of neighbors = 14575
Ave neighs/atom = 285.784
Neighbor list builds = 0
Dangerous builds = 0

###
fix 1 all box/relax aniso 0.0
min_style cg
minimize 1.0e-8 1.0e-8 100000 100000
WARNING: Using 'neigh_modify every 1 delay 0 check yes' setting during minimization (../min.cpp:190)
Per MPI rank memory allocation (min/avg/max) = 25.05 | 25.41 | 25.89 Mbytes
Step Temp E_pair E_mol TotEng Press Volume 
     179            0   -8890.1437            0   -8890.1437    30819.027     1331.242 
     269            0   -8893.2987            0   -8893.2987    1496.2659    1343.6311 
Loop time of 0.919738 on 8 procs for 90 steps with 51 atoms

99.0% CPU use with 8 MPI tasks x no OpenMP threads

Minimization stats:
  Stopping criterion = energy tolerance
  Energy initial, next-to-last, final = 
        -8890.14366859     -8893.29864125     -8893.29867689
  Force two-norm initial, final = 1037.94 70.6413
  Force max component initial, final = 608.659 29.5637
  Final line search alpha, max atom move = 6.55045e-06 0.000193655
  Iterations, force evaluations = 90 189

MPI task timing breakdown:
Section |  min time  |  avg time  |  max time  |%varavg| %total
---------------------------------------------------------------
Pair    | 0.78814    | 0.80299    | 0.82408    |   1.2 | 87.31
Neigh   | 0          | 0          | 0          |   0.0 |  0.00
Comm    | 0.010081   | 0.031185   | 0.046202   |   6.2 |  3.39
Output  | 0.0002111  | 0.00027045 | 0.00043554 |   0.0 |  0.03
Modify  | 0.0798     | 0.079875   | 0.079935   |   0.0 |  8.68
Other   |            | 0.005421   |            |       |  0.59

Nlocal:    6.375 ave 9 max 6 min
Histogram: 7 0 0 0 0 0 0 0 0 1
Nghost:    973.5 ave 995 max 955 min
Histogram: 1 1 1 0 2 0 1 0 1 1
Neighs:    1821.88 ave 2501 max 1714 min
Histogram: 7 0 0 0 0 0 0 0 0 1

Total # of neighbors = 14575
Ave neighs/atom = 285.784
Neighbor list builds = 0
Dangerous builds = 0

unfix 1
###
min_style cg
minimize 1.0e-8 1.0e-8 100000 100000
WARNING: Using 'neigh_modify every 1 delay 0 check yes' setting during minimization (../min.cpp:190)
Per MPI rank memory allocation (min/avg/max) = 25.05 | 25.41 | 25.89 Mbytes
Step Temp E_pair E_mol TotEng Press 
     269            0   -8893.2987            0   -8893.2987    1496.2624 
     279            0   -8893.3036            0   -8893.3036    1357.4648 
Loop time of 0.78066 on 8 procs for 10 steps with 51 atoms

99.2% CPU use with 8 MPI tasks x no OpenMP threads

Minimization stats:
  Stopping criterion = energy tolerance
  Energy initial, next-to-last, final = 
        -8893.29867714     -8893.30354039     -8893.30361955
  Force two-norm initial, final = 49.2629 47.0945
  Force max component initial, final = 9.86642 11.4255
  Final line search alpha, max atom move = 3.88574e-08 4.43965e-07
  Iterations, force evaluations = 10 163

MPI task timing breakdown:
Section |  min time  |  avg time  |  max time  |%varavg| %total
---------------------------------------------------------------
Pair    | 0.65692    | 0.67256    | 0.6852     |   1.0 | 86.15
Neigh   | 0          | 0          | 0          |   0.0 |  0.00
Comm    | 0.0080115  | 0.020501   | 0.036144   |   5.6 |  2.63
Output  | 2.3755e-05 | 3.1261e-05 | 5.4552e-05 |   0.0 |  0.00
Modify  | 0.085622   | 0.085751   | 0.085835   |   0.0 | 10.98
Other   |            | 0.001821   |            |       |  0.23

Nlocal:    6.375 ave 9 max 6 min
Histogram: 7 0 0 0 0 0 0 0 0 1
Nghost:    960 ave 977 max 946 min
Histogram: 2 1 1 0 0 0 1 0 2 1
Neighs:    1813.12 ave 2484 max 1702 min
Histogram: 7 0 0 0 0 0 0 0 0 1

Total # of neighbors = 14505
Ave neighs/atom = 284.412
Neighbor list builds = 0
Dangerous builds = 0

###
fix 1 all box/relax aniso 0.0
min_style cg
minimize 1.0e-8 1.0e-8 100000 100000
WARNING: Using 'neigh_modify every 1 delay 0 check yes' setting during minimization (../min.cpp:190)
Per MPI rank memory allocation (min/avg/max) = 25.05 | 25.41 | 25.89 Mbytes
Step Temp E_pair E_mol TotEng Press Volume 
     279            0   -8893.3036            0   -8893.3036    1357.4584    1343.6311 
     282            0   -8893.3044            0   -8893.3044   -645.68203    1343.7479 
Loop time of 0.0425102 on 8 procs for 3 steps with 51 atoms

98.8% CPU use with 8 MPI tasks x no OpenMP threads

Minimization stats:
  Stopping criterion = energy tolerance
  Energy initial, next-to-last, final = 
        -8893.30362066     -8893.30438745     -8893.30439481
  Force two-norm initial, final = 65.8848 54.3587
  Force max component initial, final = 26.8664 12.9549
  Final line search alpha, max atom move = 2.32846e-06 3.0165e-05
  Iterations, force evaluations = 3 8

MPI task timing breakdown:
Section |  min time  |  avg time  |  max time  |%varavg| %total
---------------------------------------------------------------
Pair    | 0.036297   | 0.037118   | 0.03789    |   0.2 | 87.31
Neigh   | 0          | 0          | 0          |   0.0 |  0.00
Comm    | 0.00040471 | 0.0011782  | 0.0019954  |   1.3 |  2.77
Output  | 2.3905e-05 | 3.1321e-05 | 5.3761e-05 |   0.0 |  0.07
Modify  | 0.0038756  | 0.0038831  | 0.0038884  |   0.0 |  9.13
Other   |            | 0.0002999  |            |       |  0.71

Nlocal:    6.375 ave 9 max 6 min
Histogram: 7 0 0 0 0 0 0 0 0 1
Nghost:    960 ave 977 max 946 min
Histogram: 2 1 1 0 0 0 1 0 2 1
Neighs:    1813.12 ave 2484 max 1702 min
Histogram: 7 0 0 0 0 0 0 0 0 1

Total # of neighbors = 14505
Ave neighs/atom = 284.412
Neighbor list builds = 0
Dangerous builds = 0

unfix 1
###
min_style cg
minimize 1.0e-8 1.0e-8 100000 100000
WARNING: Using 'neigh_modify every 1 delay 0 check yes' setting during minimization (../min.cpp:190)
Per MPI rank memory allocation (min/avg/max) = 25.05 | 25.41 | 25.89 Mbytes
Step Temp E_pair E_mol TotEng Press 
     282            0   -8893.3044            0   -8893.3044   -645.68829 
     376            0   -8896.4102            0   -8896.4102    5228.3411 
Loop time of 5.27431 on 8 procs for 94 steps with 51 atoms

99.1% CPU use with 8 MPI tasks x no OpenMP threads

Minimization stats:
  Stopping criterion = energy tolerance
  Energy initial, next-to-last, final = 
          -8893.304396     -8896.41015861     -8896.41017215
  Force two-norm initial, final = 49.7428 46.6076
  Force max component initial, final = 11.0728 12.4593
  Final line search alpha, max atom move = 1.45527e-07 1.81316e-06
  Iterations, force evaluations = 94 1095

MPI task timing breakdown:
Section |  min time  |  avg time  |  max time  |%varavg| %total
---------------------------------------------------------------
Pair    | 4.3724     | 4.4835     | 4.5715     |   2.8 | 85.01
Neigh   | 0          | 0          | 0          |   0.0 |  0.00
Comm    | 0.053905   | 0.14193    | 0.25304    |  16.0 |  2.69
Output  | 0.0002252  | 0.00028827 | 0.00047139 |   0.0 |  0.01
Modify  | 0.63813    | 0.63833    | 0.63851    |   0.0 | 12.10
Other   |            | 0.01029    |            |       |  0.20

Nlocal:    6.375 ave 9 max 6 min
Histogram: 7 0 0 0 0 0 0 0 0 1
Nghost:    960 ave 977 max 946 min
Histogram: 2 1 1 0 0 0 1 0 2 1
Neighs:    1813.12 ave 2484 max 1702 min
Histogram: 7 0 0 0 0 0 0 0 0 1

Total # of neighbors = 14505
Ave neighs/atom = 284.412
Neighbor list builds = 0
Dangerous builds = 0

undump 1
#############
#----------- Thermo ------------
reset_timestep 0
thermo  200

thermo_style    custom step temp etotal ke pe press
velocity all create 300 12345 mom yes rot yes
fix 1 all npt temp 300 300 25.0 iso 0.0 0.0 250.0

variable vpe equal pe
variable vtemp equal temp
variable vstep equal step

fix output all print 2500 "${vstep} ${vtemp} ${vpe}" file temp-tpdh-Pt.dat screen no

dump 1 all custom 2500 thermo-tpdh-Pt.lammpstrj id type x y z

run 1000000
Per MPI rank memory allocation (min/avg/max) = 23.92 | 24.29 | 24.77 Mbytes
Step Temp TotEng KinEng PotEng Press 
       0          300    -8851.698    44.712151   -8896.4102    6749.3698 
     200    214.77691   -8834.3365    32.010459    -8866.347    16069.634 
     400    397.94545   -8811.2366    59.309991   -8870.5466    13434.693 
     600    287.48675   -8829.4482     42.84717   -8872.2953    21699.008 
     800    334.74168   -8814.0692    49.890068   -8863.9593     11841.16 
    1000    301.31385   -8815.3279    44.907968   -8860.2359   -27071.092 
    1200    263.28676   -8829.4352    39.240391   -8868.6756   -13923.023 
    1400    331.49593   -8814.7402    49.406321   -8864.1465   -31016.159 
    1600     274.2213   -8812.3319    40.870081    -8853.202    10053.204 
    1800    350.23205   -8804.1971     52.19876   -8856.3958   -37902.391 
    2000    286.50664   -8822.7388    42.701093   -8865.4399    7016.6325 
    2200    296.27329   -8816.0897     44.15672   -8860.2465   -8031.4967 
    2400    376.53315   -8809.7287     56.11869   -8865.8474   -2444.5822 
    2600    270.94554   -8816.7821    40.381859    -8857.164   -12029.105 
    2800    367.78233   -8804.1006    54.814464   -8858.9151    10767.865 
    3000    269.20086   -8821.3041    40.121831   -8861.4259   -13694.533 
    3200    346.59719   -8812.9479     51.65702   -8864.6049    46781.775 
    3400    285.93689   -8817.8371    42.616178   -8860.4533    253.62706 
    3600    240.83906   -8824.9093    35.894774   -8860.8041   -15055.181 
    3800    302.11037    -8806.541    45.026681   -8851.5676   -5985.3934 
    4000    293.33939   -8817.1984     43.71945   -8860.9179    2745.9522 
    4200    238.45167   -8818.4871    35.538956   -8854.0261   -15352.418 
    4400    309.24553   -8799.8335    46.090109   -8845.9236    8429.5572 
    4600    272.33125   -8810.1675    40.588386   -8850.7559   -10234.161 
    4800    287.45643   -8822.5617    42.842651   -8865.4044    36841.721 
    5000    269.92303   -8813.4906    40.229463     -8853.72    -22557.03 
    5200    322.72276    -8807.273    48.098762   -8855.3718    64729.277 
    5400    282.56399   -8825.7379    42.113479   -8867.8513   -20006.574 
    5600    257.06225   -8818.1268    38.312687   -8856.4395    40182.435 
    5800    332.69559    -8809.689    49.585118   -8859.2742   -6377.2484 
    6000    308.16271    -8819.767    45.928724   -8865.6957    -12621.75 
    6200    266.35739   -8821.7152    39.698039   -8861.4133    542.39716 
    6400    321.54803   -8807.8908    47.923679   -8855.8145    42506.366 
    6600    281.65863   -8823.2637    41.978543   -8865.2422    37823.331 
    6800    282.24003   -8817.9206    42.065196   -8859.9858    5679.0409 
    7000     331.3739   -8805.8414    49.388132   -8855.2296    -39401.33 
    7200    327.67486   -8805.7966    48.836826   -8854.6335    37768.176 
    7400    273.12698   -8819.8071    40.706983   -8860.5141    -3472.487 
    7600    271.46604   -8812.6062    40.459436   -8853.0656   -27510.411 
    7800    364.02954   -8801.8338    54.255146    -8856.089     9093.865 
    8000    305.20743   -8810.9463    45.488269   -8856.4346   -31711.594 
    8200    273.56476   -8818.1436    40.772229   -8858.9158    16144.878 
    8400    284.24583   -8816.4202    42.364141   -8858.7844    21200.865 
    8600      294.983   -8812.3547    43.964415   -8856.3191   -18889.767 
    8800     253.3346   -8826.0361    37.757116   -8863.7933    4160.4331 
    9000    286.95911   -8824.7983     42.76853   -8867.5668   -17693.808 
    9200    274.08151   -8815.1428    40.849247   -8855.9921   -24055.904 
    9400    355.95727   -8811.8516    53.052051   -8864.9037    16474.161 
    9600    319.99702   -8821.4419    47.692517   -8869.1344    31420.516 
    9800    250.31262   -8823.5334    37.306719   -8860.8401    11549.573 
   10000      311.714   -8806.8713    46.458011   -8853.3293    8958.5217 
   10200    256.22305   -8821.4671    38.187612   -8859.6547    10466.287 
   10400      283.245   -8814.9856    42.214977   -8857.2006   -17357.637 
   10600    324.23337   -8804.8203    48.323904   -8853.1442    11925.869 
   10800     307.4407   -8820.6462    45.821117   -8866.4673   -35427.887 
   11000    258.21896   -8819.6999    38.485084    -8858.185    18149.199 
   11200    306.57737   -8816.1647    45.692445   -8861.8571    37981.421 
   11400    325.98138   -8809.3939    48.584428   -8857.9783   -7327.5555 
   11600    308.14096   -8807.3544    45.925484   -8853.2799   -3499.2591 
   11800    338.64437   -8813.3012    50.471727   -8863.7729   -3284.6696 
   12000    334.51572   -8818.0066    49.856391    -8867.863   -49605.622 
   12200    325.41243   -8819.4142    48.499632   -8867.9138   -5514.9949 
   12400    388.05985   -8803.6185    57.836635   -8861.4551    20456.763 
   12600    297.94413   -8812.7543    44.405743     -8857.16     5658.212 
   12800    294.99658   -8811.8952    43.966439   -8855.8616   -23711.729 
   13000    361.15898   -8808.1971    53.827316   -8862.0244    8115.2022 
   13200      230.278   -8822.0321    34.320749   -8856.3529    -5882.989 
   13400    282.27133   -8816.1612     42.06986   -8858.2311    28455.839 
   13600    347.10135   -8811.7977     51.73216   -8863.5298   -7865.7277 
   13800    290.89988   -8819.4002    43.355865    -8862.756    16424.393 
   14000    323.88911   -8800.0856    48.272595   -8848.3582   -11467.574 
   14200     326.7727   -8817.5642    48.702367   -8866.2666     2115.063 
   14400    293.34226   -8816.9966    43.719877   -8860.7165   -14408.753 
   14600    276.91114   -8813.2443    41.270976   -8854.5153    19831.502 
   14800    250.80209    -8819.478    37.379669   -8856.8577   -29198.622 
   15000    357.11842   -8809.1635    53.225109   -8862.3887   -3868.7654 
   15200     278.5999   -8822.8792    41.522669   -8864.4019   -3279.4066 
   15400    331.98739   -8810.6598    49.479568   -8860.1394      57130.3 
   15600    295.04601   -8823.5816    43.973806   -8867.5554     -5215.47 
   15800    273.52796   -8825.8411    40.766744   -8866.6079    20002.891 
   16000    338.27534   -8813.7857    50.416727   -8864.2024   -13122.753 
   16200    245.94605   -8827.2288    36.655923   -8863.8847     4617.517 
   16400     328.9261   -8814.3578    49.023312   -8863.3811    22867.969 
   16600    321.51586   -8815.9761    47.918885    -8863.895    36947.039 
   16800    278.39933   -8811.2649    41.492776   -8852.7577    17269.748 
   17000    307.79898   -8809.7102    45.874515   -8855.5848    23269.274 
   17200    253.37452   -8818.0307    37.763066   -8855.7938   -20238.804 
   17400    322.68367   -8806.3029    48.092937   -8854.3958   -29132.097 
   17600    299.64484   -8816.6718    44.659217   -8861.3311     4275.657 
   17800    297.89022   -8814.9022    44.397708   -8859.2999     21564.69 
   18000      329.737   -8801.8464    49.144168   -8850.9906   -40163.976 
   18200    267.24248   -8821.4528    39.829953   -8861.2828   -9113.2202 
   18400     309.3208   -8817.2877    46.101327    -8863.389   -12805.644 
   18600    237.06912   -8825.7334    35.332901   -8861.0663   -19674.863 
   18800    329.36175   -8813.6254     49.08824   -8862.7137    31442.255 
   19000    287.62864   -8811.9578    42.868318   -8854.8261   -18818.578 
   19200    317.77537   -8814.6614    47.361401   -8862.0228    18091.911 
   19400    323.33357   -8812.4743    48.189798   -8860.6641   -771.25966 
   19600    312.85625   -8820.2064    46.628253   -8866.8347    30155.327 
   19800    337.46163   -8813.3217    50.295452   -8863.6171    -11221.28 
   20000    338.56189   -8807.1914    50.459434   -8857.6509   -41725.601 
   20200    241.17741   -8824.5713    35.945202   -8860.5165    49644.929 
   20400    306.09133   -8814.8805    45.620006   -8860.5005    -5769.902 
   20600    242.57937   -8817.7941    36.154151   -8853.9483    12542.757 
   20800    285.65471   -8820.7304    42.574122   -8863.3045    42074.182 
   21000    323.23935   -8806.7161    48.175755   -8854.8919    7328.5966 
   21200    290.64189   -8810.1736    43.317414    -8853.491   -33247.425 
   21400    343.21305   -8815.1419    51.152645   -8866.2946   -7858.6143 
   21600    283.50695   -8825.3303    42.254018   -8867.5843   -9141.9813 
   21800    307.09713   -8813.8245     45.76991   -8859.5944    45598.542 
   22000    304.02166   -8820.7331    45.311541   -8866.0447    9266.8064 
   22200    257.37268   -8823.6696    38.358953   -8862.0286    56.113707 
   22400    282.04114   -8814.9844    42.035553   -8857.0199    -46201.71 
   22600    243.73706   -8819.7008    36.326693   -8856.0275    5309.5773 
   22800    299.72209   -8825.5428     44.67073   -8870.2135    30757.051 
   23000    297.16469   -8809.6116    44.289575   -8853.9012   -28961.792 
   23200    284.54476   -8805.4475    42.408694   -8847.8562    17448.796 
   23400    295.34946   -8819.0484    44.019032   -8863.0675   -18956.708 
   23600     258.8413   -8820.1882    38.577837   -8858.7661    15279.088 
   23800    308.94272   -8807.3709    46.044978   -8853.4159   -4036.7839 
   24000    256.05721   -8818.4421    38.162896    -8856.605    -14575.14 
   24200    303.49831   -8817.5619    45.233541   -8862.7954   -5281.1214 
   24400    289.10781   -8815.7916    43.088773   -8858.8803    16280.492 
   24600    295.59907   -8822.6712    44.056234   -8866.7274   -16711.217 
   24800    268.36074    -8828.834     39.99662   -8868.8306    26346.413 
   25000    248.43746   -8811.7443    37.027244   -8848.7715    -15619.98 
   25200     327.3506    -8809.027    48.788497   -8857.8155   -33184.875 
   25400    257.00562   -8825.2377    38.304247   -8863.5419   -8704.9524 
   25600    267.70372   -8816.9083    39.898696    -8856.807   -11505.614 
   25800    323.64486   -8811.2585    48.236192   -8859.4946    11537.695 
   26000    254.33681   -8822.8012    37.906486   -8860.7077   -5560.4798 
   26200    340.90673   -8811.4172    50.808911   -8862.2261    34529.859 
   26400    330.90578   -8804.8718    49.318363   -8854.1902    1438.4579 
   26600    311.33757    -8820.748    46.401908   -8867.1499    6375.5689 
   26800    237.14281   -8813.8336    35.343884   -8849.1775    38688.119 
   27000    348.35787   -8796.2384    51.919432   -8848.1579    10310.857 
   27200    287.00066   -8810.3494    42.774723   -8853.1241   -403.21667 
   27400    280.51511   -8821.6262    41.808112   -8863.4343    10878.703 
   27600    235.13747   -8830.9407    35.045006   -8865.9857    23950.163 
   27800    304.09376   -8813.7388    45.322287   -8859.0611    111.17056 
   28000     310.0405   -8814.9982    46.208591   -8861.2068   -28551.794 
   28200     255.2647   -8823.7488     38.04478   -8861.7936    11277.682 
   28400    354.45933   -8807.4347    52.828797   -8860.2635   -25707.555 
   28600    267.78436   -8820.5365    39.910715   -8860.4472    64382.577 
   28800     322.7985   -8806.8322     48.11005   -8854.9423    83110.767 
   29000    290.75274   -8827.3717    43.333935   -8870.7057    10260.312 
   29200     323.3639   -8812.9528    48.194318   -8861.1471    2418.4757 
   29400    297.74558   -8811.6088    44.376151    -8855.985    44462.144 
   29600    260.34141   -8817.9113    38.801414   -8856.7127   -54714.194 
   29800    304.18358   -8810.9467    45.335673   -8856.2824    47381.329 
   30000    310.42449   -8806.5401    46.265822   -8852.8059   -16696.621 
   30200    268.13506   -8823.2854    39.962985   -8863.2484    13831.025 
   30400    279.98784    -8814.259    41.729529   -8855.9885    56787.236 
   30600    321.62398    -8807.018       47.935    -8854.953    36472.026 
   30800    248.49218   -8819.5692    37.035399   -8856.6046   -43622.602 
   31000    269.00747   -8826.0122    40.093008   -8866.1052    431.44512 
   31200    314.46378   -8807.5768     46.86784   -8854.4446   -23179.949 
   31400    369.80199   -8804.9301    55.115474   -8860.0456    -149.7483 
   31600    296.39156   -8824.9739    44.174347   -8869.1483    -19510.79 
   31800    290.57724   -8810.3485    43.307778   -8853.6562    6051.9013 
   32000    357.11356    -8810.821    53.224385   -8864.0454    30478.158 
   32200    267.77291   -8822.7072    39.909009   -8862.6162    6644.8174 
   32400    300.78501   -8814.5363    44.829149   -8859.3654   -8955.3794 
   32600    351.35777   -8804.4406    52.366539   -8856.8072    53262.111 
   32800    319.44899   -8810.1199    47.610838   -8857.7308   -4986.5917 
   33000    246.26796   -8822.7186    36.703901   -8859.4225   -8103.9437 
   33200    343.72996   -8806.9619    51.229685   -8858.1916    5968.6989 
   33400    319.46268   -8808.6482    47.612879    -8856.261   -3819.3732 
   33600    283.95299   -8820.4166    42.320496   -8862.7371    2563.8254 
   33800     314.1246    -8818.859    46.817289   -8865.6763   -12304.413 
   34000    314.68658   -8808.0307    46.901045   -8854.9317   -13388.781 
   34200    275.67682   -8818.9736    41.087011   -8860.0606   -21833.444 
   34400    263.29103   -8812.8172    39.241027   -8852.0582   -17113.639 
   34600    304.69532    -8802.404    45.411943   -8847.8159    50652.047 
   34800    293.72219   -8817.1078    43.776503   -8860.8843    17670.171 
   35000    265.99108   -8819.8298    39.643445   -8859.4733    6336.6373 
   35200    329.06638   -8808.0702    49.044218   -8857.1144    9476.0669 
   35400    271.95631   -8811.5713    40.532506   -8852.1038   -41889.528 
   35600    293.15795   -8817.2178    43.692408   -8860.9102    22112.256 
   35800    298.08361   -8809.1969    44.426532   -8853.6235    34957.179 
   36000    307.16575    -8813.826    45.780137   -8859.6061    14502.925 
   36200    265.35972    -8822.526    39.549347   -8862.0753   -2261.3186 
   36400    353.80575    -8806.516    52.731386   -8859.2474     45368.36 
   36600    330.85717   -8802.8296     49.31112   -8852.1408   -20507.023 
   36800    312.11292    -8819.139    46.517467   -8865.6565   -11598.546 
   37000     308.3688   -8824.0013    45.959441   -8869.9608    -28747.67 
   37200    286.06827   -8820.7802    42.635758    -8863.416   -35109.292 
   37400    315.23338   -8809.6296    46.982541   -8856.6121    8460.1905 
   37600    288.86053   -8821.3882    43.051918   -8864.4401   -34290.148 
   37800    252.14528   -8832.1103    37.579859   -8869.6902    19737.419 
   38000    306.83532   -8813.1137    45.730891   -8858.8446    7970.4961 
   38200    282.88916   -8810.0261    42.161943   -8852.1881   -14894.808 
   38400    271.82286   -8824.9173    40.512615   -8865.4299    5138.1686 
   38600    285.33968   -8811.6421    42.527169   -8854.1693    56457.752 
   38800     359.1858   -8808.5183    53.533232   -8862.0515   -19382.053 
   39000    281.87376   -8820.2084    42.010607    -8862.219   -19855.568 
   39200    262.16627   -8819.2138    39.073393   -8858.2872     21226.56 
   39400    365.22027   -8807.7668    54.432612   -8862.1994    11288.608 
   39600    248.85884   -8825.5772    37.090046   -8862.6672    4487.4721 
   39800    299.32962   -8816.2348    44.612238    -8860.847    8273.5226 
   40000    324.30836   -8808.6516    48.335081   -8856.9867    10660.864 
   40200    245.50106   -8825.1571    36.589601   -8861.7467    10904.231 
   40400    290.21846   -8825.3809    43.254304   -8868.6352   -2849.6837 
   40600    260.90491   -8812.3143    38.885399   -8851.1997    34539.856 
   40800    329.56455   -8811.4792    49.118466   -8860.5977    7773.0359 
   41000    229.83546   -8828.4233    34.254792   -8862.6781   -28548.276 
   41200    308.76156   -8817.5045    46.017977   -8863.5225   -55377.996 
   41400    323.07758   -8815.2549    48.151644   -8863.4066    14585.027 
   41600    277.86604   -8814.5456    41.413294   -8855.9589   -39555.065 
   41800    291.20551   -8807.1611    43.401416   -8850.5625    -8654.675 
   42000     283.5959   -8822.8782    42.267275   -8865.1455    47894.176 
   42200    355.30187    -8809.665     52.95437   -8862.6194   -27216.337 
   42400    326.92559   -8809.0235    48.725154   -8857.7486    -10270.19 
   42600    252.07034   -8821.0025     37.56869   -8858.5712   -15693.654 
   42800     313.4132   -8811.4749    46.711261   -8858.1862    13931.158 
   43000    301.10021   -8801.7026    44.876127   -8846.5787   -11151.681 
   43200    306.75299   -8818.5512    45.718619   -8864.2698    13776.557 
   43400    318.02695   -8810.7069    47.398896   -8858.1058    3489.3075 
   43600    386.76511   -8805.3534    57.643666    -8862.997   -24829.316 
   43800    249.81331   -8823.5596    37.232301   -8860.7919    2289.7284 
   44000    326.06582   -8808.5132    48.597014   -8857.1103   -17111.727 
   44200    321.94229   -8818.7702    47.982441   -8866.7526   -23408.289 
   44400    314.46247   -8825.4684    46.867645    -8872.336     1187.715 
   44600    324.69535   -8811.3844    48.392758   -8859.7772   -49213.124 
   44800    325.73557   -8806.2289    48.547793   -8854.7767   -13466.062 
   45000    278.03784   -8823.6608    41.438899   -8865.0997    11731.079 
   45200    252.36624   -8818.5791    37.612792   -8856.1919    24.948772 
   45400    286.10025   -8806.1478    42.640525   -8848.7883    60526.002 
   45600    285.19772   -8815.7468    42.506011   -8858.2528   -19183.412 
   45800    300.41945    -8821.177    44.774665   -8865.9517    25158.592 
   46000    333.44178   -8804.0588     49.69633   -8853.7552    6958.9417 
   46200    287.75763   -8812.3745    42.887542   -8855.2621     4582.426 
   46400    254.79219    -8820.153    37.974355   -8858.1274    15925.018 
   46600    319.18454   -8809.1278    47.571425   -8856.6993   -8151.1413 
   46800    316.88602   -8802.4446    47.228851   -8849.6735   -10229.179 
   47000    247.25946   -8822.8493    36.851674    -8859.701   -12517.782 
   47200    260.91269   -8811.4052    38.886559   -8850.2918   -5302.8951 
   47400    304.23775   -8806.0521    45.343748   -8851.3958   -6695.7854 
   47600    316.24642   -8807.8044    47.133526   -8854.9379    35372.419 
   47800    291.34717   -8810.9007    43.422529   -8854.3232   -15897.842 
   48000    316.48723   -8806.2193    47.169415   -8853.3887      25436.3 
   48200    384.93667   -8793.4678    57.371154    -8850.839   -26553.184 
   48400    277.93607   -8812.5289    41.423731   -8853.9526   -6231.7606 
   48600    290.95675   -8814.2931     43.36434   -8857.6574    17847.003 
   48800    303.34986   -8808.2225    45.211416   -8853.4339   -36905.929 
   49000    345.85196   -8800.6511    51.545949    -8852.197    37695.178 
   49200    309.71419   -8811.2565    46.159958   -8857.4164    -31942.05 
   49400    306.13607   -8805.0155    45.626674   -8850.6422    20457.674 
   49600    298.67574   -8801.7537    44.514782   -8846.2684    69593.862 
   49800    293.45978   -8810.5971    43.737394   -8854.3345   -48873.531 
   50000    298.66896   -8818.0122    44.513771    -8862.526   -3718.7499 
   50200    325.87061   -8798.9727     48.56792   -8847.5406   -32308.337 
   50400      305.444   -8806.2502    45.523527   -8851.7738    -27812.39 
   50600    303.69913   -8813.0368    45.263471   -8858.3003   -18594.778 
   50800    249.70454   -8814.6996     37.21609   -8851.9156    10248.092 
   51000    307.05609   -8810.5913    45.763793   -8856.3551    26323.748 
   51200    303.13489   -8808.3923    45.179376   -8853.5716      18250.1 
   51400     325.7797    -8797.118    48.554371   -8845.6724   -41665.887 
   51600    287.44309   -8807.0458    42.840662   -8849.8865    -35500.87 
   51800    264.04217   -8807.4072    39.352977   -8846.7602    -6444.891 
   52000    272.10589    -8815.954    40.554799   -8856.5088    7869.7867 
   52200    295.27273   -8815.2177    44.007595   -8859.2253   -8033.9944 
   52400    279.15677   -8806.9823    41.605665   -8848.5879     16980.96 
   52600    356.64469   -8784.2071    53.154503   -8837.3616    5561.0862 
   52800    306.01622   -8799.2962    45.608811    -8844.905    5583.8144 
   53000    322.55201   -8809.7252    48.073314   -8857.7985   -15647.427 
   53200    232.48403   -8820.5366    34.649536   -8855.1861    -6101.735 
   53400    355.83163   -8802.1695    53.033324   -8855.2028    1504.9151 
   53600    272.44744   -8815.7511    40.605703   -8856.3568   -7087.4645 
   53800    329.09002   -8801.1288    49.047742   -8850.1765    16762.066 
   54000    296.40544   -8797.7069    44.176415   -8841.8833     37031.44 
   54200      331.601   -8804.3196     49.42198   -8853.7416   -29193.933 
   54400    282.29445    -8815.943    42.073307   -8858.0163    12974.897 
   54600    343.04423   -8807.8478    51.127484   -8858.9753   -11514.833 
   54800    312.13328   -8812.9131    46.520501   -8859.4336   -4415.5691 
   55000    284.88733   -8814.9688    42.459751   -8857.4285    4459.7477 
   55200    334.48901   -8801.0367    49.852409   -8850.8891     26250.17 
   55400    341.47059   -8806.2951    50.892949   -8857.1881    46936.745 
   55600    334.87361   -8807.2895    49.909732   -8857.1993   -17152.988 
   55800    303.26309   -8810.7188    45.198483   -8855.9172   -2933.5619 
   56000    352.89404   -8809.3198    52.595505   -8861.9153   -14704.813 
   56200    309.12566   -8811.4646    46.072243   -8857.5368   -5658.5765 
   56400    333.68687   -8804.8414    49.732859   -8854.5743     5050.901 
   56600    329.59269   -8805.5958    49.122661   -8854.7184   -6944.6686 
   56800    262.70222   -8813.5258    39.153271    -8852.679    3945.1339 
   57000    300.86951   -8806.8724    44.841742   -8851.7142   -54712.896 
   57200    290.87977   -8810.4063    43.352867   -8853.7591    591.34347 
   57400    328.84323    -8810.188     49.01096   -8859.1989    6315.8657 
   57600    287.40879    -8815.904    42.835551   -8858.7396    5212.3607 
   57800    295.96121   -8813.9679    44.110207   -8858.0781   -8985.5296 
   58000    307.42472   -8804.4567    45.818735   -8850.2754   -22678.944 
   58200    331.35123   -8800.0964    49.384753   -8849.4812    34788.288 
   58400    287.52735   -8810.1032     42.85322   -8852.9564    19316.463 
   58600    306.99918   -8811.6046    45.755311   -8857.3599    12636.238 
   58800    340.19988   -8800.2422    50.703562   -8850.9458    16615.413 
   59000    293.52327   -8801.3098    43.746856   -8845.0566    19449.851 
   59200     251.1512   -8814.9627      37.4317   -8852.3944   -46106.223 
   59400    372.90294   -8800.6249    55.577641   -8856.2026   -22456.139 
   59600    280.71153   -8805.0644    41.837387   -8846.9018    2481.8381 
   59800    359.83283   -8810.8239    53.629666   -8864.4536    1642.5354 
   60000    238.47639   -8824.9446    35.542641   -8860.4872   -43892.886 
   60200    309.78262   -8805.4892    46.170158   -8851.6593   -63293.536 
   60400    284.86493   -8807.2844    42.456412   -8849.7408    22899.125 
   60600    245.81405   -8815.5302    36.636249   -8852.1664    18164.985 
   60800    277.48862   -8812.9062    41.357043   -8854.2633    26140.966 
   61000    353.11774   -8799.6929    52.628845   -8852.3217    20798.117 
   61200    304.21239   -8814.3115    45.339967   -8859.6515   -17115.214 
   61400    318.35788   -8810.3794    47.448219   -8857.8276   -6043.5803 
   61600    293.79899   -8810.3991    43.787949   -8854.1871    23467.229 
   61800    266.86533   -8815.3856    39.773743   -8855.1594    11765.748 
   62000    318.86986   -8803.7912    47.524524   -8851.3157    5438.9713 
   62200    270.87337   -8815.2986    40.371103   -8855.6697   -15323.477 
   62400     268.6386   -8823.0758    40.038032   -8863.1138   -25882.783 
   62600     346.2884   -8804.9371    51.610997   -8856.5481    -10031.69 
   62800     310.1583   -8803.8843    46.226149   -8850.1104    66387.548 
   63000    233.04858   -8819.5003    34.733677    -8854.234    1189.5133 
   63200     365.9887    -8799.929     54.54714   -8854.4761   -15850.604 
   63400    313.15406   -8808.6515    46.672639   -8855.3241    2330.9511 
   63600    281.66505   -8815.9627    41.979501   -8857.9422   -41985.845 
   63800    313.17807   -8808.5409    46.676217   -8855.2172   -7032.9648 
   64000    288.87249   -8821.1717    43.053701   -8864.2254   -7169.9356 
   64200    251.40891   -8819.2762     37.47011   -8856.7463   -3063.5254 
   64400    286.19544   -8802.1342    42.654713   -8844.7889   -25772.303 
   64600    265.50759   -8811.1568    39.571384   -8850.7282    47506.194 
   64800    258.12163   -8813.4569    38.470577   -8851.9275   -49743.079 
   65000    345.55363   -8806.0785    51.501486     -8857.58    42078.108 
   65200    262.77405   -8816.4573    39.163977   -8855.6213    19786.333 
   65400    335.56881   -8812.1651    50.013344   -8862.1784   -11567.064 
   65600    334.97584     -8800.27    49.924968    -8850.195   -42118.183 
   65800    324.81765   -8809.0341    48.410986   -8857.4451    19141.261 
   66000    302.11647   -8815.0076     45.02759   -8860.0352   -6637.2029 
   66200    360.63511   -8798.5206    53.749238   -8852.2698   -2220.6557 
   66400      302.368   -8820.3629    45.065079    -8865.428   -10363.107 
   66600    328.57852   -8813.8919    48.971507   -8862.8634   -16456.507 
   66800     319.2302   -8810.3495    47.578229   -8857.9277    1337.8056 
   67000    261.08568   -8821.6228     38.91234   -8860.5352   -3536.9655 
   67200    270.60897   -8809.2283    40.331698     -8849.56    8279.1428 
   67400    314.24487   -8806.1874    46.835214   -8853.0226   -14257.956 
   67600    248.27343   -8818.9032    37.002796    -8855.906   -13438.946 
   67800    318.80879   -8814.8433    47.515422   -8862.3588     8707.923 
   68000    276.86154   -8809.4275    41.263583   -8850.6911   -4836.8037 
   68200     286.8761   -8817.2236    42.756158   -8859.9798   -27539.393 
   68400    253.93505   -8822.7306    37.846607   -8860.5772    10884.254 
   68600    328.22202   -8805.3434    48.918375   -8854.2618      18175.7 
   68800    265.48692   -8815.3884    39.568304   -8854.9567   -32654.526 
   69000    293.13378   -8818.5856    43.688806   -8862.2744   -21066.076 
   69200    347.39052   -8813.9925    51.775258   -8865.7678    -25424.61 
   69400    274.79236   -8818.1119    40.955191   -8859.0671   -11049.171 
   69600    314.55256   -8811.2381    46.881072   -8858.1192   -16970.318 
   69800    320.36108   -8812.4065    47.746777   -8860.1533   -10195.291 
   70000    265.53236   -8822.8958    39.575076   -8862.4708   -29223.342 
   70200    280.92109   -8814.3777     41.86862   -8856.2464    16685.135 
   70400    317.36658   -8809.1263    47.300475   -8856.4268   -12395.857 
   70600    273.72017   -8812.8306    40.795392    -8853.626   -36468.335 
   70800    297.62498    -8819.442    44.358177   -8863.8001    45700.165 
   71000    220.22878   -8826.8678    32.823008   -8859.6908    24672.147 
   71200    345.83867    -8809.987    51.543969    -8861.531   -20142.303 
   71400    297.54505   -8820.3233    44.346264   -8864.6695    16416.741 
   71600    294.80926   -8811.0685    43.938521    -8855.007    5804.9883 
   71800    330.93757   -8811.3397    49.323101   -8860.6628   -22420.946 
   72000    309.11891   -8819.1371    46.071237   -8865.2084     14704.03 
   72200    320.59977   -8807.3885    47.782351   -8855.1709    22304.804 
   72400    355.45455   -8809.8902    52.977125   -8862.8673   -21442.295 
   72600    311.58082    -8819.488    46.438161   -8865.9261    3597.4744 
   72800    310.08252   -8807.1977    46.214854   -8853.4126    33714.849 
   73000    256.17061   -8815.9148    38.179796   -8854.0946   -36539.316 
   73200    278.46351   -8817.1159    41.502341   -8858.6183   -29233.808 
   73400    306.16059    -8806.182    45.630328   -8851.8123   -14719.708 
   73600    289.53067   -8815.2902    43.151796    -8858.442   -8379.9942 
   73800    263.77196   -8826.1988    39.312705   -8865.5115    15046.306 
   74000    323.52226   -8812.6148     48.21792   -8860.8327   -5517.2893 
   74200    268.51067   -8825.3798    40.018966   -8865.3988   -5299.7336 
   74400     339.3168   -8821.1574    50.571946   -8871.7294   -4941.6731 
   74600    280.77125   -8812.3653    41.846288   -8854.2116    -5779.435 
   74800    309.40737   -8812.1653    46.114231   -8858.2796    67593.031 
   75000    264.87877   -8832.3851    39.477665   -8871.8628   -5903.2505 
   75200    289.55273   -8816.7605    43.155085   -8859.9155    20214.799 
   75400    328.56973   -8808.3971    48.970198   -8857.3673   -2876.8441 
   75600    300.98579   -8826.0543    44.859073   -8870.9133   -13361.707 
   75800    268.10904   -8819.0283    39.959105   -8858.9874   -41573.902 
   76000    289.16028   -8814.5029    43.096593   -8857.5995    30132.441 
   76200    265.73397   -8814.0314    39.605124   -8853.6366    6503.8204 
   76400    339.53652   -8812.0499    50.604694   -8862.6546    21852.727 
   76600    333.14883    -8802.182    49.652668   -8851.8346   -4092.6508 
   76800    320.49262   -8819.5441    47.766381   -8867.3105   -5782.4491 
   77000    301.39357   -8820.3668    44.919849   -8865.2867   -21104.169 
   77200    372.61707   -8802.0775    55.535036   -8857.6125    8491.1368 
   77400    251.36441   -8822.5333    37.463478   -8859.9968    -17658.73 
   77600    303.91176   -8811.9515    45.295161   -8857.2467    20375.612 
   77800    252.38412   -8807.4036    37.615456    -8845.019   -39518.967 
   78000    201.94166   -8823.9767    30.097486   -8854.0742    8694.0461 
   78200    252.94461   -8833.8006    37.698992   -8871.4996    50605.915 
   78400    274.57157   -8815.2662    40.922285   -8856.1885   -2360.2149 
   78600      339.247   -8813.7765    50.561544    -8864.338   -26058.194 
   78800    272.27473   -8826.7487    40.579963   -8867.3287    9183.4456 
   79000    277.68863   -8817.6803    41.386853   -8859.0672   -29216.006 
   79200    348.63442   -8803.1757    51.960649   -8855.1363    11273.406 
   79400    335.12689    -8801.459     49.94748   -8851.4065    -1084.756 
   79600    282.39897   -8813.3152    42.088884   -8855.4041   -27079.364 
   79800    264.09141   -8819.5831    39.360317   -8858.9435    6998.3873 
   80000    240.65707   -8824.9438    35.867651   -8860.8114    40805.011 
   80200     329.4923   -8809.1312    49.107698   -8858.2389   -38011.556 
   80400     274.2546   -8823.2994    40.875044   -8864.1745   -43491.359 
   80600    313.04459   -8812.9825    46.656323   -8859.6388   -39477.597 
   80800    322.75722   -8803.9235    48.103898   -8852.0274    39461.176 
   81000    254.42256   -8822.8191    37.919265   -8860.7383   -28887.716 
   81200     287.0399   -8812.2951    42.780571   -8855.0756    6428.0128 
   81400     348.8917   -8804.9594    51.998994   -8856.9584   -7558.0229 
   81600     248.0601   -8822.2286    36.971002   -8859.1996   -47884.896 
   81800     212.2775    -8841.207    31.637945    -8872.845   -8760.1701 
   82000    281.05646   -8825.0752    41.888796    -8866.964    8709.2849 
   82200    322.47862   -8811.3272    48.062376   -8859.3895    16782.376 
   82400    326.35988   -8808.3547     48.64084   -8856.9956     7451.561 
   82600    289.72617   -8813.8991    43.180933   -8857.0801   -28779.568 
   82800    330.56365   -8808.9933    49.267372   -8858.2607    38386.061 
   83000     329.3812   -8804.2397    49.091139   -8853.3308    71523.541 
   83200    272.07405   -8816.7278    40.550053   -8857.2779   -45184.859 
   83400    299.16675   -8817.7291    44.587962   -8862.3171     -30038.9 
   83600    390.46061   -8803.2019    58.194445   -8861.3963    18359.381 
   83800    267.03988   -8820.7589    39.799758   -8860.5586    32703.702 
   84000     310.6852    -8814.034    46.304679   -8860.3387   -40066.962 
   84200    292.44334   -8821.6772    43.585903   -8865.2631    3867.2702 
   84400    246.45879    -8826.128    36.732342   -8862.8603    20219.001 
   84600    297.89724   -8818.8745    44.398754   -8863.2732    4907.6327 
   84800    308.41098   -8819.8316    45.965728   -8865.7973   -46350.777 
   85000    272.09689   -8832.3342    40.553458   -8872.8877    14876.741 
   85200    292.08616   -8815.7613    43.532668    -8859.294   -42708.647 
   85400    273.95493   -8815.0621     40.83038   -8855.8925   -7419.8077 
   85600    340.62882   -8801.1213     50.76749   -8851.8888   -58444.051 
   85800    275.42935   -8818.9847    41.050128   -8860.0349   -29150.685 
   86000    325.81547   -8810.9964    48.559701   -8859.5561   -13733.212 
   86200    284.59548   -8819.8746    42.416253   -8862.2909   -8344.1554 
   86400    294.66859   -8821.3233    43.917554   -8865.2408   -26097.897 
   86600    377.71971   -8814.7647    56.295536   -8871.0602    24713.127 
   86800    268.56895    -8830.298    40.027651   -8870.3256    38941.309 
   87000     268.9325   -8818.3415    40.081835   -8858.4233    22807.967 
   87200    274.70124   -8812.5507    40.941611   -8853.4923   -2430.4988 
   87400     321.4733   -8801.1532    47.912542   -8849.0657   -12452.928 
   87600    244.51017   -8822.3078    36.441919   -8858.7497    31046.674 
   87800    314.24564   -8813.0578    46.835329   -8859.8931    6872.2275 
   88000    346.26638   -8797.8955    51.607715   -8849.5032    13638.398 
   88200    282.84284   -8815.4079    42.155038    -8857.563   -4323.2947 
   88400    271.37367   -8821.2917    40.445668   -8861.7374   -34362.563 
   88600       339.73   -8805.3678     50.63353   -8856.0013    8532.3228 
   88800    266.96748   -8820.7624    39.788967   -8860.5513   -5998.6374 
   89000    306.75838   -8815.8423    45.719424   -8861.5617   -11006.767 
   89200    277.97343   -8813.6112      41.4293   -8855.0405   -1406.9239 
   89400    277.01695   -8823.5347    41.286746   -8864.8214   -7851.5729 
   89600    242.74863   -8829.4088    36.179378   -8865.5881   -9587.6079 
   89800    319.21864   -8809.9746    47.576507   -8857.5511   -8010.9655 
   90000     281.7925   -8819.3726    41.998496   -8861.3711    48821.698 
   90200    243.80278    -8826.863    36.336488   -8863.1995   -48704.312 
   90400    332.05674   -8808.9364    49.489903   -8858.4263     51331.44 
   90600    299.57042    -8814.436    44.648127   -8859.0841   -22306.571 
   90800    257.07403   -8823.7296    38.314443   -8862.0441    30703.769 
   91000    280.29025   -8814.4646      41.7746   -8856.2392   -40745.489 
   91200    302.63242   -8817.0636    45.104489   -8862.1681    29338.979 
   91400    294.95678    -8817.407    43.960506   -8861.3675   -11056.976 
   91600    297.45435   -8812.2999    44.332746   -8856.6327    -9955.213 
   91800    255.45321   -8813.1332    38.072875    -8851.206    12504.706 
   92000    274.95989   -8822.3795     40.98016   -8863.3596    10527.383 
   92200    327.11524   -8810.9486     48.75342    -8859.702   -294.53716 
   92400    364.85586   -8811.2687    54.378301    -8865.647   -5525.3292 
   92600    305.27985    -8816.832    45.499062   -8862.3311   -8937.6213 
   92800    283.25918   -8816.9597     42.21709   -8859.1768    815.89684 
   93000    336.87821   -8801.1378    50.208498   -8851.3463    12796.242 
   93200    358.01732   -8814.8464    53.359081   -8868.2055   -12473.538 
   93400    289.95179   -8819.2816    43.214561   -8862.4962      49626.6 
   93600    395.85395   -8799.6617    58.998271     -8858.66   -5932.4712 
   93800    287.69786    -8813.233    42.878634   -8856.1116    19658.657 
   94000    272.43595   -8813.7596    40.603991   -8854.3636   -23627.876 
   94200     268.4146   -8819.7785    40.004646   -8859.7832   -20544.634 
   94400    321.43595   -8812.2477    47.906976   -8860.1547   -23201.059 
   94600    333.48268   -8811.9861    49.702426   -8861.6885    -23440.63 
   94800    233.91612   -8823.0039    34.862976   -8857.8669    21582.796 
   95000    303.53147   -8813.4531    45.238483   -8858.6916    7412.5913 
   95200    406.44229   -8800.0127    60.576363   -8860.5891    3806.9976 
   95400    274.01525    -8820.293     40.83937   -8861.1324    54711.492 
   95600    297.37672   -8811.6586    44.321175   -8855.9798    -61468.65 
   95800    314.60895   -8803.1524    46.889476   -8850.0418    68075.917 
   96000     274.6417   -8824.1546    40.932737   -8865.0874   -43992.387 
   96200    263.46849   -8813.2748    39.267476   -8852.5423    49140.667 
   96400    327.38283    -8806.489    48.793302   -8855.2823    -22107.61 
   96600    261.56517   -8820.5173    38.983804   -8859.5011   -20152.718 
   96800    280.92025   -8814.6258    41.868495   -8856.4943    4859.6334 
   97000     325.0493   -8814.7173    48.445511   -8863.1629   -40530.674 
   97200    255.85332   -8834.6659    38.132507   -8872.7984   -22584.381 
   97400    288.33908   -8824.7614    42.974201   -8867.7356    13436.118 
   97600    329.60944    -8812.348    49.125157   -8861.4731   -47870.386 
   97800    312.90653   -8819.5389    46.635747   -8866.1746    16925.129 
   98000     253.1681   -8822.4713    37.732301   -8860.2036    21205.396 
   98200    310.37797   -8810.5484    46.258888   -8856.8073    24457.397 
   98400    282.53422   -8810.8071    42.109041   -8852.9161   -20420.823 
   98600    305.27764   -8819.7667    45.498733   -8865.2655    13808.777 
   98800    247.92672   -8823.3914    36.951123   -8860.3425    11939.692 
   99000     260.3702   -8812.4088    38.805706   -8851.2145    54751.322 
   99200    308.46099    -8817.263     45.97318   -8863.2362   -12511.008 
   99400    242.92356   -8831.0797     36.20545   -8867.2851    -3999.424 
   99600    330.15373   -8813.6123    49.206278   -8862.8186    14497.909 
   99800    319.88904   -8815.5679    47.676424   -8863.2443    -18356.16 
  100000    269.75166   -8825.7947    40.203923   -8865.9986   -5906.0907 
  100200    319.68458   -8813.4298     47.64595   -8861.0758     17849.25 
  100400    282.50721   -8804.4941    42.105016   -8846.5991    25633.833 
  100600    283.18365   -8816.8879    42.205834   -8859.0937   -811.49285 
  100800    260.65094   -8824.7506    38.847548   -8863.5982    20097.268 
  101000    251.11659    -8808.952    37.426543   -8846.3785   -33572.854 
  101200    269.08355   -8811.9729    40.104347   -8852.0773    6188.4041 
  101400    263.58013    -8815.168    39.284115   -8854.4521   -28221.757 
  101600     326.7331   -8815.6944    48.696465   -8864.3909    22307.693 
  101800    311.49016   -8807.3793    46.424649   -8853.8039   -20904.349 
  102000    271.28775   -8818.0319    40.432862   -8858.4647   -17014.407 
  102200    279.69865   -8823.1596    41.686428    -8864.846   -90.473419 
  102400    309.79917   -8809.4693    46.172624   -8855.6419   -13521.999 
  102600    324.56413   -8806.3644    48.373201   -8854.7376     24131.82 
  102800    231.27191   -8822.8591    34.468882    -8857.328    8968.0422 
  103000      330.927   -8811.2748    49.321526   -8860.5963   -19497.447 
  103200    283.82555   -8815.0415    42.301502    -8857.343    9428.5348 
  103400    280.31729   -8823.4919     41.77863   -8865.2705   -22336.139 
  103600    311.38445   -8807.6162    46.408894   -8854.0251    418.74591 
  103800    374.18363   -8797.7644    55.768516    -8853.533     1273.259 
  104000    286.80231   -8818.0626    42.745161   -8860.8077   -40171.535 
  104200    293.30827   -8819.7256    43.714812   -8863.4405    23927.948 
  104400    353.02694   -8804.6544    52.615312   -8857.2697    9615.3911 
  104600    290.55315   -8813.7927    43.304188   -8857.0969   -7904.6256 
  104800    312.12262   -8817.0837    46.518913   -8863.6026    10867.133 
  105000    345.06981   -8799.4132    51.429378   -8850.8426   -14459.712 
  105200     338.5989   -8817.1267     50.46495   -8867.5916    11532.896 
  105400    270.61904   -8820.7989    40.333198   -8861.1321   -15137.406 
  105600    363.31551   -8803.1075    54.148726   -8857.2563    9708.0024 
  105800    275.63339   -8817.5636    41.080539   -8858.6441   -51060.162 
  106000     254.3494   -8813.9402    37.908363   -8851.8486    54707.727 
  106200    361.89856    -8809.281    53.937543   -8863.2185   -3410.0066 
  106400    265.73342   -8824.9152    39.605043   -8864.5203   -2965.5997 
  106600    327.76203   -8808.8607    48.849818   -8857.7105   -24152.647 
  106800    304.59579    -8812.902     45.39711   -8858.2991   -3407.5917 
  107000    251.66591   -8816.9041    37.508414   -8854.4126   -34689.279 
  107200    290.22223   -8815.7187    43.254867   -8858.9736    21867.847 
  107400    200.21307   -8830.3331    29.839856   -8860.1729   -519.36904 
  107600     322.9253   -8815.2239    48.128949   -8863.3528    28856.206 
  107800    304.56012   -8813.3985    45.391794   -8858.7903    3312.5482 
  108000    310.18537   -8822.5843    46.230184   -8868.8145   -1116.0997 
  108200    279.64268   -8824.7347    41.678086   -8866.4128   -969.78728 
  108400    329.83999   -8811.2471    49.159518   -8860.4066   -14227.726 
  108600    275.23688   -8814.4704    41.021442   -8855.4918   -17495.393 
  108800    359.64859   -8796.5566    53.602207   -8850.1588   -1886.1366 
  109000    307.97954   -8813.6036    45.901426    -8859.505      17074.1 
  109200    289.49122   -8818.2471    43.145918   -8861.3931   -17809.033 
  109400    399.87123   -8799.4675    59.597008   -8859.0645     53852.55 
  109600    292.93089   -8816.2509    43.658567   -8859.9094   -18425.041 
  109800    343.76051   -8815.2237    51.234239    -8866.458    29220.651 
  110000    345.45815   -8805.3659    51.487256   -8856.8531   -14175.547 
  110200     286.9627    -8818.603    42.769065    -8861.372    40063.873 
  110400    269.41803   -8815.6778    40.154198    -8855.832   -18238.955 
  110600    355.17106   -8806.8603    52.934873   -8859.7952   -5713.6502 
  110800    295.04015   -8818.3754    43.972932   -8862.3483    7981.7948 
  111000    285.05823   -8828.1843    42.485221   -8870.6695    51695.812 
  111200    248.96973   -8824.6898    37.106573   -8861.7964   -23087.442 
  111400    328.21857   -8815.8502    48.917861   -8864.7681   -176.07947 
  111600    308.22208    -8815.397    45.937574   -8861.3346     8948.422 
  111800    339.91202   -8803.4853    50.660658   -8854.1459    35935.162 
  112000    285.40403   -8819.5179    42.536761   -8862.0546     18029.11 
  112200    298.93079   -8817.3123    44.552796   -8861.8651   -20712.273 
  112400    338.41165   -8798.6634    50.437043   -8849.1005    10387.215 
  112600    283.20704   -8822.3564     42.20932   -8864.5658   -9567.5467 
  112800    342.24585   -8812.6738    51.008493   -8863.6823    13000.978 
  113000    297.56698   -8815.2366    44.349532   -8859.5861   -27070.488 
  113200    276.78695    -8824.621    41.252467   -8865.8735   -40006.166 
  113400     310.6885   -8815.6793     46.30517   -8861.9844   -2552.6834 
  113600     301.2901   -8814.0437    44.904428   -8858.9482   -12733.088 
  113800    380.03172   -8799.1415    56.640119   -8855.7816    29947.236 
  114000    291.49524   -8815.1869    43.444597   -8858.6315    63990.272 
  114200    279.86269   -8814.4732    41.710876    -8856.184    7450.2147 
  114400    266.23265   -8819.0993    39.679448   -8858.7788   -37076.828 
  114600    285.11622   -8817.8084    42.493865   -8860.3023   -11515.951 
  114800    330.04629   -8808.1252    49.190265   -8857.3154    16008.532 
  115000    262.56677   -8821.1829    39.133084   -8860.3159   -35917.018 
  115200    302.07494   -8811.9731    45.021401   -8856.9945    42535.726 
  115400    380.03761   -8795.0071    56.640997   -8851.6481   -20240.705 
  115600    275.51648   -8813.2385    41.063115   -8854.3016    12923.132 
  115800    294.31974   -8814.3009    43.865562   -8858.1664    25441.531 
  116000    274.20501   -8822.7956    40.867653   -8863.6632    20715.647 
  116200     335.6561   -8820.2666    50.026354    -8870.293    7092.6113 
  116400      315.083   -8809.4276    46.960128   -8856.3877   -37144.379 
  116600    338.87212   -8815.3177    50.505672   -8865.8234    13136.809 
  116800    252.27732   -8828.0041    37.599539   -8865.6036   -6044.6059 
  117000    358.83475   -8813.2058    53.480911   -8866.6867   -19493.457 
  117200    247.21069   -8820.8307    36.844405   -8857.6751    -3289.518 
  117400    239.89693    -8817.147    35.754359   -8852.9013    1861.8223 
  117600    318.52128   -8802.4955    47.472572   -8849.9681   -27824.767 
  117800    329.68974   -8816.6017    49.137125   -8865.7388    15675.007 
  118000    224.65752   -8817.4412     33.48307   -8850.9243   -7989.4644 
  118200    356.96557   -8804.8541    53.202328   -8858.0564    23795.291 
  118400    261.55458   -8822.9236    38.982225   -8861.9059   -43919.067 
  118600    294.38884   -8816.9873    43.875861   -8860.8632    56623.529 
  118800    357.44503     -8799.93    53.273786   -8853.2038   -2087.5895 
  119000    283.15892   -8810.8839    42.202147   -8853.0861    15185.979 
  119200    282.49104   -8816.4691    42.102607   -8858.5717     3150.022 
  119400    294.92371   -8812.0925    43.955578    -8856.048   -55659.452 
  119600    240.40832   -8823.5332    35.830577   -8859.3638     12298.69 
  119800    276.81444    -8811.755    41.256563   -8853.0116   -22212.078 
  120000    284.64149    -8805.723     42.42311   -8848.1461   -54449.148 
  120200      274.115    -8820.721    40.854238   -8861.5753    14943.493 
  120400    286.42147   -8818.0903      42.6884   -8860.7787   -14974.779 
  120600    318.86674   -8809.5204     47.52406   -8857.0445   -13521.039 
  120800    288.09722   -8824.5942    42.938154   -8867.5323    51870.535 
  121000     308.6668   -8810.7378    46.003854   -8856.7416   -22491.832 
  121200    329.13433   -8805.6737    49.054346    -8854.728    34190.449 
  121400      241.716   -8826.0016    36.025475   -8862.0271   -58494.752 
  121600    283.99571   -8811.9025    42.326863   -8854.2294    52677.549 
  121800    342.52504   -8807.1814    51.050105   -8858.2315    58944.187 
  122000    233.39843   -8825.4995    34.785819   -8860.2853    11702.709 
  122200    258.56618   -8819.2729    38.536833   -8857.8097    15466.716 
  122400    345.83688   -8807.9002    51.543702   -8859.4439   -3088.5705 
  122600    238.90973   -8825.0182    35.607227   -8860.6254    14101.369 
  122800    306.74116   -8816.8157    45.716857   -8862.5325   -17376.131 
  123000    334.78893   -8812.6598    49.897111   -8862.5569    13432.426 
  123200    335.98984   -8810.0817    50.076095   -8860.1578   -20608.216 
  123400    295.35456     -8822.54    44.019792   -8866.5598    34610.663 
  123600     281.1994   -8819.6353      41.9101   -8861.5454   -5017.8733 
  123800    297.92621   -8810.5351    44.403072   -8854.9382    30618.305 
  124000    276.04382   -8810.9372     41.14171   -8852.0789   -24648.296 
  124200    232.14654   -8823.8271    34.599237   -8858.4263     13749.54 
  124400    318.49695    -8804.948    47.468946   -8852.4169     46091.84 
  124600    326.72374   -8811.4896     48.69507   -8860.1846    -19984.97 
  124800    282.67618   -8828.7918      42.1302    -8870.922    -5756.219 
  125000    272.87715   -8826.2812    40.669748    -8866.951    814.59272 
  125200     272.5652   -8815.1305    40.623255   -8855.7538   -22670.086 
  125400    326.57438   -8809.1169    48.672809   -8857.7897    18416.012 
  125600    281.98582   -8826.8014    42.027308   -8868.8287    11316.109 
  125800    328.87837   -8815.1596    49.016197   -8864.1758   -19525.827 
  126000    305.34972   -8809.6105    45.509476     -8855.12   -11551.437 
  126200     227.2151   -8824.9841    33.864252   -8858.8484   -13300.731 
  126400    269.42381   -8817.7396     40.15506   -8857.8947   -46611.683 
  126600    293.88952   -8810.0375    43.801441    -8853.839   -796.02674 
  126800    262.32553   -8826.9836     39.09713   -8866.0808    23407.394 
  127000    322.78663   -8819.5963    48.108281   -8867.7046   -15485.412 
  127200    308.39331   -8814.2768    45.963093   -8860.2399     -35777.1 
  127400    272.63719    -8813.018    40.633984    -8853.652     27903.54 
  127600    319.11096   -8804.7068    47.560458   -8852.2673    5206.3735 
  127800    258.22404   -8817.7384    38.485841   -8856.2243   -22083.906 
  128000    335.14473   -8812.5923    49.950139   -8862.5425    28284.636 
  128200    223.61483   -8831.0005    33.327667   -8864.3281   -20304.098 
  128400    292.97049    -8816.399    43.664469   -8860.0635    14244.502 
  128600    319.32493   -8816.0579    47.592348   -8863.6502     10681.38 
  128800    284.20248   -8821.3532    42.357681   -8863.7108     20231.54 
  129000    279.43821    -8814.481    41.647612   -8856.1286    6743.4118 
  129200    275.30206   -8806.8675    41.031157   -8847.8986    14200.295 
  129400    293.31705   -8814.9983     43.71612   -8858.7144   -21120.883 
  129600    235.73351   -8830.3756     35.13384   -8865.5094    3476.4953 
  129800    334.23202   -8818.5458    49.814108   -8868.3599   -16404.728 
  130000    316.38228   -8810.9278    47.153775   -8858.0816   -26729.369 
  130200    298.89672   -8828.5736    44.547717   -8873.1213    16229.866 
  130400    299.54822   -8818.6239    44.644817   -8863.2688    11743.977 
  130600    301.92267   -8813.8428    44.998706   -8858.8415    11384.882 
  130800    372.08189   -8805.9284    55.455272   -8861.3837   -6247.7197 
  131000     358.2545   -8801.3522    53.394431   -8854.7467   -3143.1095 
  131200    327.97727   -8813.2532    48.881898   -8862.1351   -8588.1793 
  131400    256.53961   -8818.0843    38.234792   -8856.3191   -18493.989 
  131600    279.12197   -8822.6432    41.600479   -8864.2436    25463.435 
  131800    346.28226   -8809.0193    51.610082   -8860.6294   -5191.0617 
  132000    272.32326   -8825.8808    40.587195    -8866.468    -25794.79 
  132200    304.55478   -8820.6344    45.390997   -8866.0254    8495.6167 
  132400    299.14574   -8809.6348    44.584831   -8854.2197   -13367.895 
  132600    323.44036   -8811.9557    48.205714   -8860.1614   -6499.5956 
  132800    246.23405   -8823.6473    36.698847   -8860.3462    2810.0335 
  133000    364.82542   -8807.7668    54.373764   -8862.1405    31731.041 
  133200    286.10594   -8813.6729    42.641373   -8856.3142   -16854.966 
  133400    273.54776   -8828.4828    40.769695   -8869.2525   -31462.017 
  133600    283.71474   -8819.8232    42.284987   -8862.1082   -8568.6822 
  133800    275.13477   -8817.0228    41.006225    -8858.029    15117.764 
  134000    296.59384   -8817.8764    44.204495   -8862.0809    5999.5578 
  134200    286.11281    -8805.472    42.642396   -8848.1144   -31647.095 
  134400    323.38039   -8806.8353    48.196775   -8855.0321   -17261.343 
  134600    294.80017   -8822.0227    43.937165   -8865.9599   -32961.959 
  134800     329.7707   -8809.1503     49.14919   -8858.2995    10811.597 
  135000    315.55155   -8809.5262    47.029961   -8856.5562    17289.369 
  135200    240.94677   -8814.8195    35.910828   -8850.7303    20761.216 
  135400    325.97467   -8806.5546    48.583429   -8855.1381   -39349.079 
  135600    331.81545   -8807.6645    49.453941   -8857.1185    6612.5784 
  135800    283.89136   -8818.5143    42.311311   -8860.8256   -33921.004 
  136000    352.92183   -8803.9581    52.599647   -8856.5577   -4162.9183 
  136200    318.37955   -8809.6378    47.451449   -8857.0893   -5097.1586 
  136400    278.23555   -8816.1934    41.468367   -8857.6618   -19067.566 
  136600    340.71736   -8802.5682    50.780687   -8853.3488   -34185.524 
  136800    313.28035      -8801.9    46.691461   -8848.5914   -18604.515 
  137000    269.51453   -8811.0822    40.168581   -8851.2508   -26882.296 
  137200    301.11434   -8812.8274    44.878232   -8857.7057    11080.805 
  137400    299.78109   -8819.8598    44.679525   -8864.5393    30328.161 
  137600    345.42654    -8808.777    51.482546   -8860.2596   -11621.243 
  137800    288.49754   -8824.0505    42.997818   -8867.0483   -15803.981 
  138000    297.57478   -8820.3232    44.350695   -8864.6739    28812.956 
  138200    309.42625   -8804.1986    46.117044   -8850.3157    -13289.12 
  138400    283.00359   -8817.0647    42.178997   -8859.2437    12821.797 
  138600    337.36808   -8807.8034    50.281508   -8858.0849   -12762.492 
  138800     388.7156   -8801.6654    57.934368   -8859.5997   -7246.4894 
  139000    347.68601   -8811.7787    51.819298    -8863.598   -46.552952 
  139200    258.98775   -8817.8449    38.599665   -8856.4446    28649.127 
  139400    250.52192   -8825.8574    37.337912   -8863.1953   -42907.858 
  139600    331.14134   -8819.8026    49.353472   -8869.1561    8307.8812 
  139800    307.67781   -8809.6489    45.856455   -8855.5054   -9051.0378 
  140000    257.44745   -8826.8229    38.370097    -8865.193   -7490.0507 
  140200    278.79933   -8813.0585    41.552392   -8854.6109   -20416.755 
  140400    331.66434   -8805.4195     49.43142    -8854.851    12660.962 
  140600    319.99634   -8817.4905    47.692416    -8865.183   -20315.738 
  140800    287.25441   -8822.8057    42.812542   -8865.6182   -2973.1542 
  141000    285.78883   -8813.4859    42.594111     -8856.08     35532.59 
  141200    288.09363   -8815.9014     42.93762    -8858.839    790.80663 
  141400    268.73035   -8822.2688    40.051706   -8862.3205    15173.316 
  141600    340.51716   -8802.6709    50.750848   -8853.4218    4816.4954 
  141800    292.03208   -8813.9427    43.524608   -8857.4673    -23075.64 
  142000    300.52701   -8813.2829    44.790697   -8858.0736   -3090.8464 
  142200    363.99148    -8803.774    54.249472   -8858.0234   -14894.523 
  142400    297.99116   -8821.4998    44.412752   -8865.9126   -10476.766 
  142600    315.41909   -8817.6873     47.01022   -8864.6976   -11033.418 
  142800    347.90945   -8800.0313    51.852599   -8851.8839   -48783.818 
  143000    325.01076   -8816.6812    48.439767   -8865.1209    66193.807 
  143200    293.51391   -8815.9487    43.745461   -8859.6942     28829.77 
  143400     382.0232   -8799.5458     56.93693   -8856.4827   -1637.7582 
  143600    311.43724   -8818.3756    46.416763   -8864.7924    24379.238 
  143800    349.20222   -8816.2589    52.045275   -8868.3042   -2842.0206 
  144000    273.91401   -8808.8086    40.824281   -8849.6329    49380.368 
  144200    266.59885   -8819.4987    39.734026   -8859.2328   -25978.254 
  144400    251.29808   -8821.6487    37.453592   -8859.1023    6689.5731 
  144600    291.55305   -8809.5495    43.453212   -8853.0027    91731.974 
  144800    261.53384   -8817.5077    38.979135   -8856.4868    9814.1292 
  145000    267.52028   -8827.3196    39.871358    -8867.191    35872.174 
  145200    289.49374   -8818.5339    43.146292   -8861.6802   -13830.336 
  145400    285.77417   -8810.2909    42.591925   -8852.8828    60172.902 
  145600    261.20268   -8827.1469    38.929778   -8866.0766    -6681.915 
  145800     287.2405   -8823.8119    42.810469   -8866.6224    14185.389 
  146000    295.26437   -8811.9984    44.006351   -8856.0047    16110.633 
  146200    317.88307   -8813.0112    47.377453   -8860.3887    24989.526 
  146400    304.55446   -8818.6978     45.39095   -8864.0888    19960.185 
  146600    284.68069   -8810.2821    42.428953   -8852.7111    3536.2483 
  146800    310.89477   -8814.8739    46.335913   -8861.2099    -13690.85 
  147000    304.82413   -8826.4272    45.431141   -8871.8584    19223.737 
  147200    309.07374   -8817.3479    46.064505   -8863.4124   -13432.285 
  147400    278.00645   -8811.8075     41.43422   -8853.2417   -18270.246 
  147600    342.28336   -8815.3271    51.014083   -8866.3412   -30960.878 
  147800    313.04707   -8815.5071    46.656692   -8862.1638    34839.916 
  148000    272.41441     -8817.92     40.60078   -8858.5208   -27563.703 
  148200    353.75309   -8804.6381    52.723539   -8857.3616    23768.119 
  148400    287.51848   -8818.4773    42.851899   -8861.3292    22961.272 
  148600    297.80766   -8817.0684    44.385403   -8861.4538    -1421.979 
  148800    276.72983   -8818.7055    41.243953   -8859.9495   -11242.186 
  149000    364.34753   -8802.3911    54.302538   -8856.6936   -37571.812 
  149200    235.91262   -8824.3536    35.160536   -8859.5141   -18367.681 
  149400    341.68566   -8815.1508    50.925002   -8866.0758   -2766.7663 
  149600     404.6136   -8797.7793    60.303814   -8858.0831   -7867.1042 
  149800    307.99094   -8814.2035    45.903124   -8860.1066    41848.361 
  150000    297.48018   -8816.2323    44.336595   -8860.5689   -16686.779 
  150200    318.23826   -8811.3626     47.43039    -8858.793    6974.3007 
  150400    307.86604   -8814.6985     45.88451    -8860.583    21579.709 
  150600    270.60303   -8823.1255    40.330812   -8863.4563   -30531.998 
  150800    325.67649   -8811.1407    48.538988   -8859.6797    41164.516 
  151000     303.2311    -8815.582    45.193715   -8860.7757   -11318.848 
  151200    266.33952   -8830.7204    39.695376   -8870.4158    28480.032 
  151400    273.47245   -8821.9077    40.758471   -8862.6662    26545.636 
  151600    342.10621    -8810.694    50.987681   -8861.6817   -59321.533 
  151800    281.59794   -8821.3522    41.969499   -8863.3217    49086.173 
  152000    281.00369   -8819.0221    41.880931    -8860.903    183.93625 
  152200    324.33177   -8807.5254     48.33857   -8855.8639   -13836.438 
  152400    322.23388   -8815.7415    48.025899   -8863.7674    2055.9521 
  152600    294.02379   -8825.6334    43.821453   -8869.4548   -1269.7474 
  152800    274.77688    -8820.639    40.952885   -8861.5919   -24238.572 
  153000    341.02853   -8813.2149    50.827064    -8864.042     8431.991 
  153200    265.58266   -8824.5462    39.582573   -8864.1288    39788.008 
  153400    307.30404    -8817.897    45.800748   -8863.6978   -25243.272 
  153600    262.78328   -8819.4011    39.165353   -8858.5664    6594.0738 
  153800    319.50033   -8802.0966     47.61849   -8849.7151   -11314.373 
  154000    312.14697   -8812.2535    46.522541    -8858.776    8667.4776 
  154200     292.8654   -8816.1886    43.648807   -8859.8374    5622.1787 
  154400    308.56395   -8812.2438    45.988527   -8858.2323    14847.448 
  154600    270.05402   -8826.8897    40.248987   -8867.1387    27531.418 
  154800    299.39493   -8822.7938    44.621971   -8867.4158    15602.487 
  155000    318.60853   -8815.2202    47.485575   -8862.7058    7470.3584 
  155200    278.47129   -8820.9701      41.5035   -8862.4736   -32034.243 
  155400     341.1341   -8814.6183    50.842798   -8865.4611    2321.2748 
  155600    316.72487   -8807.7819    47.204834   -8854.9868   -609.41073 
  155800    277.39813   -8826.4167    41.343556   -8867.7603   -13634.925 
  156000    308.90281   -8820.3991    46.039031   -8866.4381   -810.35124 
  156200    290.96965   -8814.5993    43.366262   -8857.9656    17425.827 
  156400    312.73015   -8810.2785    46.609458    -8856.888    -5398.871 
  156600    277.74113   -8823.9513    41.394677    -8865.346    13326.211 
  156800    265.17645   -8817.6597    39.522031   -8857.1817   -40776.843 
  157000    281.78759   -8805.9799    41.997764   -8847.9777   -12816.268 
  157200    292.82291   -8822.7938    43.642473   -8866.4363     5762.622 
  157400    296.70581   -8816.3697    44.221182   -8860.5909   -28420.328 
  157600    298.17787   -8814.1785    44.440579   -8858.6191    1208.2722 
  157800    292.99602    -8815.592    43.668274   -8859.2603   -19223.269 
  158000    321.87901   -8814.1852    47.973009   -8862.1582    2813.4035 
  158200    287.89688   -8814.3844    42.908296   -8857.2927    13469.481 
  158400    259.91824   -8824.7722    38.738346   -8863.5106   -29512.285 
  158600    328.87174   -8808.8092    49.015209   -8857.8244    46484.831 
  158800    322.64636   -8812.6735    48.087376   -8860.7608   -33378.547 
  159000    263.19575   -8830.3885    39.226828   -8869.6153    42242.505 
  159200    275.65737   -8829.8642    41.084113   -8870.9483    36659.948 
  159400    279.88383    -8815.771    41.714026    -8857.485   -34338.186 
  159600    307.41436   -8805.3866    45.817191   -8851.2038   -8115.4662 
  159800    293.70313   -8819.2224    43.773662   -8862.9961   -882.51124 
  160000    274.24223   -8816.7332      40.8732   -8857.6064   -3064.8916 
  160200     344.6161   -8807.2949    51.361756   -8858.6567   -17857.001 
  160400    374.98775   -8802.5053    55.888362   -8858.3936    14163.008 
  160600    280.51292   -8823.0674    41.807786   -8864.8752    -8405.651 
  160800     328.9262   -8810.8715    49.023327   -8859.8949   -31227.484 
  161000    419.24099   -8792.9377    62.483888   -8855.4216    63140.226 
  161200    306.86432   -8814.9064    45.735213   -8860.6416    28870.017 
  161400    287.28056   -8819.0368    42.816439   -8861.8533   -34508.997 
  161600    299.36063   -8804.7788    44.616858   -8849.3956    10638.244 
  161800    272.65992   -8813.0124    40.637372   -8853.6497   -50176.569 
  162000    300.27433   -8816.1432    44.753037   -8860.8962    47760.953 
  162200    302.09188    -8810.498    45.023926   -8855.5219   -12150.944 
  162400    281.24614   -8825.1795    41.917066   -8867.0966    27287.119 
  162600    312.79068   -8814.0224     46.61848   -8860.6409    20967.139 
  162800    264.21615   -8813.3798    39.378908   -8852.7587    6299.6185 
  163000    348.10451   -8812.1403    51.881671    -8864.022     10824.86 
  163200    298.11389   -8820.8381    44.431044   -8865.2692    24931.487 
  163400    340.13555   -8807.6587    50.693974   -8858.3526    25167.161 
  163600    342.88567    -8811.487    51.103853   -8862.5909    26171.582 
  163800    296.18326   -8823.4034    44.143303   -8867.5467    20862.301 
  164000    332.20726   -8802.9125    49.512337   -8852.4248    23304.737 
  164200    293.55314   -8814.5913    43.751308   -8858.3426    43235.326 
  164400    290.13028    -8821.533    43.241163   -8864.7742   -43708.577 
  164600    361.07904   -8801.7714    53.815401   -8855.5868    10778.913 
  164800    287.27783   -8814.4198    42.816032   -8857.2359    61956.781 
  165000    277.17545   -8816.6646    41.310369   -8857.9749    5135.7823 
  165200    321.15279   -8800.9322    47.864773    -8848.797   -10606.594 
  165400    282.69427   -8810.9512    42.132896   -8853.0841    8532.1127 
  165600    268.75082   -8818.9131    40.054758   -8858.9678    55314.843 
  165800     260.7219   -8821.9703    38.858122   -8860.8284    14786.987 
  166000    354.50896   -8806.2681    52.836194   -8859.1043    33082.259 
  166200    280.42139   -8823.0176    41.794145   -8864.8117   -6597.0121 
  166400     288.8009   -8818.0601    43.043031   -8861.1031     3212.595 
  166600    296.02008    -8812.841    44.118982   -8856.9599    10824.941 
  166800    306.66198   -8822.3388    45.705055   -8868.0439    31718.591 
  167000    246.02999   -8818.7883    36.668434   -8855.4567    9476.8763 
  167200    343.36873   -8808.3927    51.175848   -8859.5686   -6851.2773 
  167400    251.63918    -8824.787     37.50443   -8862.2914    8732.6825 
  167600    280.48316   -8824.2224    41.803351   -8866.0257   -14344.784 
  167800    306.72279   -8811.9262    45.714119   -8857.6403    36407.352 
  168000    322.41084   -8808.9849    48.052274   -8857.0372   -31797.183 
  168200    249.87758   -8823.1302    37.241879   -8860.3721    15508.873 
  168400     312.8266   -8812.4589    46.623834   -8859.0827   -9379.4335 
  168600    292.79392   -8817.8645    43.638153   -8861.5026   -7402.8931 
  168800    263.02532   -8825.5482    39.201426   -8864.7496   -12181.761 
  169000    280.24032    -8812.581    41.767158   -8854.3481    2551.4865 
  169200    275.46239   -8812.6928    41.055053   -8853.7479    45193.199 
  169400    242.74597   -8828.7906    36.178982   -8864.9696    17942.645 
  169600     297.1138   -8819.8935     44.28199   -8864.1755    -400.3499 
  169800    273.30238   -8814.5031    40.733124   -8855.2362   -7641.3533 
  170000    351.82349   -8803.0382    52.435949   -8855.4742    22860.182 
  170200    289.25796    -8823.903    43.111152   -8867.0141    9909.1741 
  170400    330.17688   -8814.9346    49.209728   -8864.1443   -5992.1236 
  170600    382.37486    -8798.153    56.989341   -8855.1423    10601.898 
  170800    305.54665   -8815.7941    45.538827   -8861.3329    19530.425 
  171000     303.1492   -8815.9189    45.181509   -8861.1004    -24068.75 
  171200    383.08086   -8798.8971    57.094564   -8855.9916   -15208.627 
  171400    311.94132   -8817.2837    46.491892   -8863.7756    2610.4926 
  171600    284.04204   -8824.2867    42.333769   -8866.6205    25570.132 
  171800    357.80988   -8810.6132    53.328164   -8863.9413   -7814.8447 
  172000    329.92838   -8808.6443    49.172692    -8857.817   -7663.6215 
  172200    314.38556   -8823.6553    46.856181   -8870.5114   -797.47669 
  172400    266.76556   -8812.6563    39.758874   -8852.4152   -2961.1924 
  172600    311.87522   -8810.8402    46.482039   -8857.3223   -20332.724 
  172800     278.5401   -8816.4369    41.513756   -8857.9507   -31490.507 
  173000    255.09365   -8817.1575    38.019286   -8855.1768   -13420.059 
  173200    286.50994   -8810.4959    42.701586   -8853.1975     64593.03 
  173400    239.11952   -8831.9545    35.638493    -8867.593    -13408.35 
  173600    299.29249   -8816.2663    44.606703    -8860.873    29019.237 
  173800    330.57728   -8817.9227    49.269403   -8867.1921   -22813.727 
  174000    274.83156   -8823.9353    40.961034   -8864.8963   -7676.5854 
  174200    304.95889   -8811.6994    45.451226   -8857.1507   -26711.777 
  174400    273.69856   -8819.3833     40.79217   -8860.1755   -27769.676 
  174600    348.82054   -8800.1125    51.988388   -8852.1009    37041.856 
  174800    312.71203   -8811.0947    46.606758   -8857.7015    14598.754 
  175000    303.02287   -8814.1945    45.162682   -8859.3572   -11784.092 
  175200    277.95219   -8812.0323    41.426134   -8853.4584   -14301.768 
  175400    341.51398   -8811.0251    50.899416   -8861.9245    56435.687 
  175600    252.28343   -8826.4403    37.600449   -8864.0408    -14886.48 
  175800    281.56649   -8810.2061    41.964811   -8852.1709   -18455.417 
  176000    326.43215   -8809.2272    48.651612   -8857.8788    4873.8022 
  176200    274.09627   -8822.3447    40.851446   -8863.1961   -28203.824 
  176400    254.93363   -8822.2963    37.995436   -8860.2918    4849.9447 
  176600     289.6192   -8819.5659    43.164992   -8862.7309   -485.77859 
  176800    274.84575   -8822.1025    40.963148   -8863.0657   -13618.303 
  177000    273.81965   -8828.9719    40.810218   -8869.7821   -4672.9548 
  177200    317.88646   -8814.0895    47.377958   -8861.4674   -37665.509 
  177400    299.47954   -8819.0139    44.634581   -8863.6485   -11903.091 
  177600    257.60272    -8825.478    38.393238   -8863.8713   -4888.0719 
  177800    309.71223   -8816.3345    46.159667   -8862.4942    25133.162 
  178000    350.88353   -8807.1849    52.295858   -8859.4807   -32827.872 
  178200     243.3598   -8826.9037    36.270467   -8863.1742    14187.774 
  178400    318.53961   -8820.4855    47.475303   -8867.9608    6677.9602 
  178600     304.7219   -8809.8449    45.415906   -8855.2608   -5142.8645 
  178800    285.37342   -8821.8372    42.532198   -8864.3694    4756.2877 
  179000    284.52727   -8821.5546    42.406087   -8863.9607    4108.3793 
  179200    303.86341   -8813.7887    45.287956   -8859.0766    26362.469 
  179400    319.32834   -8822.9415    47.592856   -8870.5343    18557.958 
  179600    281.28398   -8826.2733    41.922705    -8868.196    8562.6982 
  179800    285.81897    -8814.449    42.598602   -8857.0477    4785.6681 
[...]
  950000    308.29915   -8809.5296     45.94906   -8855.4786   -7938.5857 
  950200    335.31837   -8798.8341    49.976019   -8848.8101      15942.4 
  950400    241.84822    -8817.191    36.045181   -8853.2361    19849.565 
  950600    308.50516   -8810.3044    45.979764   -8856.2842   -26980.858 
  950800    349.24055   -8798.1367    52.050988   -8850.1877   -42338.492 
  951000    233.33141   -8821.3682    34.775831    -8856.144    18321.071 
  951200    355.46288   -8809.9679    52.978367   -8862.9462   -41695.197 
  951400    225.06347   -8823.7754    33.543573    -8857.319    7888.1299 
  951600    289.66952   -8817.4197    43.172491   -8860.5922     26640.97 
  951800    267.56649   -8818.8289    39.878245   -8858.7071   -2271.8882 
  952000    258.10159   -8818.5964    38.467591    -8857.064   -22794.354 
  952200    332.48817   -8810.0658    49.554204     -8859.62     34421.67 
  952400    281.17582   -8824.4587    41.906585   -8866.3653    21975.707 
  952600    294.22577   -8823.1193    43.851556   -8866.9708   -24654.003 
  952800    301.75803   -8814.4549    44.974169    -8859.429   -37706.184 
  953000    300.93012   -8821.4997    44.850776   -8866.3505    52530.427 
  953200    321.39458   -8808.6917     47.90081   -8856.5926   -17805.588 
  953400    282.01584   -8817.8077    42.031782   -8859.8394    135.67282 
  953600    366.27908    -8805.423    54.590418   -8860.0134   -36584.599 
  953800    255.16106   -8814.1262    38.029333   -8852.1556    27791.323 
  954000    292.88944   -8814.1703    43.652389   -8857.8227   -2888.0462 
  954200    379.01309   -8804.0456    56.488302   -8860.5339   -8960.7652 
  954400    327.32139   -8822.6928    48.784144    -8871.477   -17533.526 
  954600    265.00474   -8817.2985     39.49644    -8856.795    9195.4688 
  954800    335.88918   -8812.1355    50.061093   -8862.1966    2170.4669 
  955000    277.91522    -8818.326    41.420624   -8859.7467   -31465.545 
  955200    323.48431   -8809.8264    48.212264   -8858.0386   -38978.594 
  955400    241.57645   -8824.1908    36.004675   -8860.1955    36552.044 
  955600    336.28502   -8810.2864    50.120089   -8860.4065   -1374.9669 
  955800    299.18483   -8815.9351    44.590657   -8860.5257    33812.885 
  956000    341.01988   -8819.9126    50.825774   -8870.7384   -2374.2811 
  956200    255.17814   -8828.9053    38.031879   -8866.9372    51866.148 
  956400    305.30172   -8812.1049    45.502322   -8857.6072   -2807.2889 
  956600    279.56166   -8819.9536    41.666011   -8861.6196    -27355.27 
  956800    274.16283   -8813.4926    40.861366    -8854.354   -34932.937 
  957000    332.45097    -8807.178    49.548659   -8856.7267    15049.201 
  957200    281.25523   -8824.4984     41.91842   -8866.4168    8212.5224 
  957400    304.22838   -8820.7989     45.34235   -8866.1412   -7039.9972 
  957600    362.36397   -8797.1818    54.006909   -8851.1887   -14405.385 
  957800    289.89207   -8803.6602     43.20566   -8846.8658   -1448.9402 
  958000    274.09604   -8819.8555    40.851412   -8860.7069    3355.9312 
  958200    323.43496   -8817.4999    48.204908   -8865.7048    3917.0398 
  958400    345.75209   -8801.3986    51.531066   -8852.9297    44131.228 
  958600    262.31672   -8820.4463    39.095816   -8859.5422    12827.296 
  958800     316.9851   -8818.0966    47.243618   -8865.3403   -32565.696 
  959000    352.88972   -8803.0163    52.594861   -8855.6111    18858.714 
  959200     303.3837   -8821.1786    45.216459   -8866.3951   -3987.9101 
  959400    250.53479   -8816.3154    37.339831   -8853.6552   -30352.962 
  959600    300.41719   -8808.3016    44.774329    -8853.076   -3080.1094 
  959800    310.36237   -8811.6672    46.256564   -8857.9238    10087.584 
  960000    311.69633   -8815.8187    46.455377   -8862.2741   -10875.663 
  960200     253.3311   -8827.0777    37.756594   -8864.8343    3120.6474 
  960400    334.73564   -8811.6261    49.889168   -8861.5153   -27637.955 
  960600    276.16685   -8814.5651    41.160046   -8855.7251    3222.7856 
  960800    289.85833     -8821.72    43.200631   -8864.9207    4513.5979 
  961000    285.94228    -8818.381     42.61698    -8860.998    10030.476 
  961200    335.75743   -8806.8228    50.041457   -8856.8642    17240.204 
  961400    226.00169    -8824.603    33.683406   -8858.2864    9149.9049 
  961600    245.62727   -8820.7859    36.608412   -8857.3943    20905.597 
  961800    326.88767   -8804.7518    48.719503   -8853.4713    64721.634 
  962000    339.04244   -8809.9219    50.531056    -8860.453   -33079.035 
  962200    271.46933   -8821.6018    40.459925   -8862.0618   -9254.6261 
  962400     341.0804   -8807.2721    50.834794   -8858.1069   -2948.8457 
  962600    330.86312   -8805.0928    49.312006   -8854.4048    56134.567 
  962800    321.43643   -8810.2968    47.907047   -8858.2038   -8843.3851 
  963000    308.65731   -8816.1417    46.002441   -8862.1441   -13391.863 
  963200    316.07063   -8816.1796    47.107326   -8863.2869    19779.748 
  963400    265.71342   -8817.9223    39.602062   -8857.5244   -30005.458 
  963600    374.89389   -8810.3966    55.874373    -8866.271   -10883.845 
  963800    284.75914   -8825.6942    42.440646   -8868.1348   -28802.424 
  964000    295.39429   -8818.4944    44.025714   -8862.5201     13251.92 
  964200    312.38019   -8809.8908      46.5573   -8856.4481   -26888.197 
  964400    279.52197   -8813.4092    41.660094   -8855.0693   -4079.2245 
  964600    272.93523   -8821.9304    40.678405   -8862.6088    26859.975 
  964800    378.34961   -8808.7352    56.389416   -8865.1246    15750.609 
  965000    298.24256   -8816.5765    44.450222   -8861.0267   -54076.509 
  965200    265.45842   -8831.6147    39.564056   -8871.1788    9927.1301 
  965400    293.61626   -8822.0462    43.760715   -8865.8069   -19320.077 
  965600     337.7107   -8812.9274    50.332572     -8863.26   -8023.9678 
  965800    310.85262   -8813.5202     46.32963   -8859.8499   -6556.3359 
  966000    304.12527    -8824.078    45.326983    -8869.405    31175.243 
  966200    306.12902   -8808.7628    45.625624   -8854.3885   -9817.9552 
  966400    301.65546   -8817.4901    44.958881    -8862.449    -25694.76 
  966600    243.28294   -8822.2881    36.259012   -8858.5472   -11963.201 
  966800    340.94861   -8808.6425    50.815153   -8859.4577      22704.1 
  967000     278.4633   -8825.5993    41.502311   -8867.1016     28016.52 
  967200    303.57393   -8819.8495     45.24481   -8865.0943    5924.8698 
  967400    276.07347   -8816.4625    41.146128   -8857.6086    13106.322 
  967600    296.97701   -8812.7081    44.261602   -8856.9697   -37620.259 
  967800    350.80703   -8796.5398    52.284456   -8848.8243    11574.328 
  968000     283.1406   -8815.8246    42.199417    -8858.024    2278.3308 
  968200        286.9   -8818.7723     42.75972    -8861.532   -13670.014 
  968400     291.6399   -8820.9359    43.466157   -8864.4021   -2893.2661 
  968600    319.38317   -8806.3949    47.601029   -8853.9959    44089.101 
  968800     249.6662   -8824.8111    37.210376   -8862.0215   -35365.143 
  969000    271.68058   -8819.2067     40.49141   -8859.6981    2975.6775 
  969200    317.12721   -8807.2716    47.264799   -8854.5364   -8758.1811 
  969400    269.40966   -8817.3315     40.15295   -8857.4845     2908.464 
  969600    308.36292   -8813.8047    45.958564   -8859.7633    -11494.09 
  969800    364.77698    -8790.493    54.366544   -8844.8596    20527.678 
  970000    282.76988   -8813.8036    42.144165   -8855.9478   -14641.505 
  970200    286.39133   -8819.3128    42.683908   -8861.9967   -2390.1761 
  970400    342.70218   -8807.7633    51.076505   -8858.8398    4296.8526 
  970600    283.20463   -8815.6897    42.208961   -8857.8986   -51367.244 
  970800    297.94664   -8817.4337    44.406117   -8861.8398    42459.296 
  971000    282.29108   -8824.3039    42.072805   -8866.3768   -16677.486 
  971200     275.4303   -8822.5095     41.05027   -8863.5598     14163.33 
  971400    305.05441     -8812.44    45.465462   -8857.9055    6476.4682 
  971600    295.78939    -8816.849      44.0846   -8860.9336   -9675.4442 
  971800    248.89309    -8823.141    37.095152   -8860.2362    35040.093 
  972000     314.5929   -8805.3708    46.887084   -8852.2579   -38851.173 
  972200    289.78919    -8812.293    43.190327   -8855.4833    40052.784 
  972400    328.61274   -8816.5017    48.976608   -8865.4783   -20539.155 
  972600    278.01077   -8814.8014    41.434865   -8856.2362     78875.72 
  972800    366.94055   -8799.9508    54.689004   -8854.6398    20082.684 
  973000    332.66066   -8814.8334    49.579912   -8864.4133   -51927.153 
  973200    287.26914   -8819.6719    42.814737   -8862.4867     4306.865 
  973400    234.68174   -8829.6401    34.977084   -8864.6172    2151.6152 
  973600    315.94504   -8813.0087    47.088608   -8860.0974   -8324.9076 
  973800    269.73679   -8810.7101    40.201707   -8850.9119     5665.324 
  974000    358.72182   -8796.8125    53.464081   -8850.2766    19455.048 
  974200    299.51208   -8816.7796    44.639431   -8861.4191    2034.7645 
  974400     284.2097   -8817.6619    42.358757   -8860.0207    12403.736 
  974600    301.43462   -8816.4706    44.925967   -8861.3966   -42273.892 
  974800    314.40687    -8809.142    46.859358   -8856.0013    38401.125 
  975000    253.01983   -8826.0579    37.710203   -8863.7681    142.41585 
  975200    296.91022   -8814.7009    44.251648   -8858.9525   -9395.8032 
  975400    315.14105    -8802.026    46.968781   -8848.9948    8846.4433 
  975600    256.10245    -8820.465    38.169638   -8858.6347    13738.258 
  975800    346.21552   -8814.3451    51.600135   -8865.9452   -8850.4181 
  976000    305.03981   -8800.3604    45.463287   -8845.8237   -6541.2243 
  976200    305.79879    -8823.367    45.576405   -8868.9434    29531.729 
  976400    271.68876   -8821.1016    40.492629   -8861.5943   -27978.444 
  976600    313.28879   -8806.1235    46.692719   -8852.8163    26175.355 
  976800    261.88821   -8819.0291     39.03195   -8858.0611   -11457.217 
  977000    328.64197   -8812.8945    48.980964   -8861.8755    -8961.121 
  977200    264.76453   -8820.3136    39.460639   -8859.7743   -23316.599 
  977400    292.78359   -8819.5709    43.636613   -8863.2075   -23640.226 
  977600    331.81166   -8810.8101    49.453377   -8860.2635   -50200.192 
  977800    298.48195   -8811.7248      44.4859   -8856.2107     44096.26 
  978000    294.79781    -8813.515    43.936813   -8857.4518    23176.261 
  978200     283.1384   -8821.0372     42.19909   -8863.2363    33410.225 
  978400    314.22727   -8804.4325     46.83259   -8851.2651   -2209.8249 
  978600    255.11716   -8823.7479     38.02279   -8861.7707    2219.5751 
  978800    310.80515   -8815.4691    46.322556   -8861.7916    12805.444 
  979000    345.98619   -8799.0773    51.565955   -8850.6433    -14987.72 
  979200    299.29909     -8808.07    44.607686   -8852.6776   -30138.271 
  979400    332.77754   -8812.5259    49.597332   -8862.1233    34726.676 
  979600    272.93091   -8807.3522    40.677761     -8848.03   -24341.109 
  979800    339.18372    -8795.042    50.552112   -8845.5941   -13815.896 
  980000    321.03386   -8817.7522    47.847048   -8865.5992   -18988.294 
  980200    276.92794    -8816.368     41.27348   -8857.6414   -16718.186 
  980400    381.64193   -8801.4298    56.880105   -8858.3099   -9666.1868 
  980600    256.75911   -8820.6782    38.267507   -8858.9457    54206.148 
  980800    301.74966   -8813.2307    44.972921   -8858.2036   -30212.094 
  981000    344.46758    -8808.284    51.339622   -8859.6236   -29683.771 
  981200    278.50604   -8823.4732     41.50868   -8864.9819    44455.182 
  981400    308.33624   -8814.8672    45.954588   -8860.8218    9228.7458 
  981600    360.05445   -8808.1126    53.662696   -8861.7753   -10014.466 
  981800    314.45276   -8822.7772    46.866198   -8869.6434   -31407.051 
  982000    397.80281   -8804.6072    59.288731   -8863.8959   -21734.659 
  982200    337.66133    -8818.765    50.325214   -8869.0902    -63801.45 
  982400    286.02528   -8819.3081    42.629352   -8861.9375    36801.011 
  982600    318.39762   -8805.0891    47.454141   -8852.5432   -30967.079 
  982800    343.63712   -8811.4571    51.215849    -8862.673    53362.338 
  983000    287.42603   -8819.9285    42.838119   -8862.7666    17735.029 
  983200    338.16539   -8808.9832    50.400339   -8859.3836   -20518.966 
  983400     318.3049    -8808.847    47.440323   -8856.2873   -20233.277 
  983600    259.28122   -8818.7978    38.643404   -8857.4413    28185.319 
  983800    301.93895   -8807.2757    45.001132   -8852.2769   -10122.261 
  984000    272.68217   -8826.2894    40.640688   -8866.9301   -1965.0365 
  984200    303.55525   -8819.9409    45.242028   -8865.1829   -8220.1162 
  984400    337.68334   -8812.4041    50.328495   -8862.7326    19917.361 
  984600    287.36591   -8816.2648     42.82916    -8859.094   -8431.0039 
  984800     283.3168   -8808.7874    42.225679   -8851.0131    28268.811 
  985000    292.81986   -8806.5252    43.642019   -8850.1672    38829.951 
  985200    258.34442   -8817.8098    38.503783   -8856.3136   -15273.461 
  985400    309.64534    -8798.887    46.149697   -8845.0366    -14416.86 
  985600    287.70051   -8803.2012    42.879029   -8846.0802   -22171.091 
  985800    360.53666   -8813.4343    53.734565   -8867.1688   -17221.588 
  986000    276.18754   -8822.8599     41.16313   -8864.0231    12028.817 
  986200    352.54606    -8804.727    52.543641   -8857.2707   -8058.3131 
  986400    266.28181   -8821.2337    39.686774   -8860.9205    12393.091 
  986600    249.76041   -8819.2908    37.224418   -8856.5152   -7998.5846 
  986800    332.20223    -8806.601    49.511587   -8856.1126    7737.7774 
  987000    382.68029   -8796.8192    57.034863   -8853.8541    4229.6188 
  987200    272.53008   -8818.1463     40.61802   -8858.7643   -2672.5864 
  987400    349.99215   -8807.7043    52.163005   -8859.8673   -33494.292 
  987600     288.3239   -8810.6446    42.971939   -8853.6166   -22614.427 
  987800    236.81483   -8825.4512    35.295001   -8860.7462   -11081.964 
  988000    274.91522   -8815.8682    40.973502   -8856.8418    60310.507 
  988200    290.62352   -8810.8671    43.314675   -8854.1818    25955.399 
  988400    252.74736   -8821.4339    37.669593   -8859.1035    5540.9532 
  988600    329.09951    -8806.701    49.049156   -8855.7502    11266.288 
  988800    345.94059   -8805.3882     51.55916   -8856.9473    24555.151 
  989000    288.25009   -8821.0182    42.960938   -8863.9791    -11030.67 
  989200    236.99469   -8826.4211    35.321807   -8861.7429    32772.362 
  989400    326.45368    -8806.452     48.65482   -8855.1068    14918.115 
  989600    318.62676   -8809.5732    47.488293   -8857.0615    19375.045 
  989800    274.63637   -8817.5432    40.931943   -8858.4751   -10363.222 
  990000     307.8368   -8810.9662    45.880151   -8856.8463    22477.054 
  990200    328.90778   -8809.3083     49.02058   -8858.3289   -34842.046 
  990400    237.45801   -8824.6177    35.390861   -8860.0085    8457.4499 
  990600    267.98384   -8817.8049    39.940446   -8857.7454    22083.401 
  990800    311.21105   -8814.0688    46.383051   -8860.4518   -40201.898 
  991000    340.33439    -8810.583    50.723609   -8861.3066    7886.4728 
  991200    341.46644   -8801.2448     50.89233   -8852.1371   -29468.848 
  991400    297.10142   -8811.7803    44.280146   -8856.0605   -24908.743 
  991600    283.77038   -8826.3957    42.293281    -8868.689   -4676.9959 
  991800    280.29747   -8821.0571    41.775675   -8862.8328    1334.3908 
  992000    334.24856   -8812.0369    49.816574   -8861.8535    11569.792 
  992200    273.48689   -8817.1549    40.760623   -8857.9155    29509.646 
  992400    250.44325   -8825.0947    37.326188   -8862.4209   -3546.7275 
  992600     327.2336   -8809.8271     48.77106   -8858.5982    -25818.33 
  992800     263.1992   -8817.1414    39.227341   -8856.3687   -397.32614 
  993000    324.72777   -8809.8969     48.39759   -8858.2945    19278.186 
  993200    379.40119   -8807.0017    56.546145   -8863.5478    7373.1656 
  993400    328.15448   -8813.9876    48.908308    -8862.896   -45340.134 
  993600    274.39329   -8820.2796    40.895714   -8861.1753   -815.99262 
  993800    306.30475   -8827.4943    45.651814   -8873.1462   -14423.572 
  994000    290.74977   -8813.4445    43.333491    -8856.778    5666.8195 
  994200    300.68823   -8811.4881    44.814725   -8856.3028    8705.4719 
  994400    265.56207   -8825.7479    39.579504   -8865.3274    22169.361 
  994600     347.6132   -8811.6921    51.808446   -8863.5005    8025.5356 
  994800     239.4357   -8812.5431    35.685618   -8848.2287     33524.14 
  995000    431.27214   -8793.7434    64.277016   -8858.0204   -599.77535 
  995200     270.7776   -8813.6984     40.35683   -8854.0552    81618.937 
  995400    334.46773     -8803.96    49.849239   -8853.8092   -1996.5311 
  995600    261.93281   -8817.4031    39.038598   -8856.4417    31006.513 
  995800     275.7517   -8821.0817    41.098172   -8862.1799   -45307.665 
  996000    352.02698   -8802.9157    52.466278    -8855.382    16877.791 
  996200    260.61212   -8817.8067    38.841761   -8856.6485   -40130.546 
  996400     321.6091   -8811.4774    47.932782   -8859.4102   -23741.985 
  996600    343.08533   -8813.6239    51.133609   -8864.7575    36419.071 
  996800    319.41284   -8818.2462     47.60545   -8865.8517    31985.759 
  997000     318.3142   -8809.1537    47.441708   -8856.5954    -29263.97 
  997200     277.3877    -8826.005    41.342003   -8867.3471    16804.249 
  997400     289.5324   -8815.2367    43.152055   -8858.3887   -42299.683 
  997600    355.69361   -8814.0903    53.012755   -8867.1031   -5074.8139 
  997800    263.42444    -8821.701    39.260911   -8860.9619   -20844.094 
  998000    286.47993    -8820.443    42.697113   -8863.1401    1384.0833 
  998200    282.31564    -8808.803    42.076465   -8850.8794     -7760.67 
  998400    411.04496   -8790.2859    61.262347   -8851.5482    50617.672 
  998600    311.17283   -8813.5908    46.377355   -8859.9682   -301.24092 
  998800    289.70048   -8818.2156    43.177105   -8861.3927    8962.6667 
  999000    370.63286   -8811.9415    55.239308   -8867.1808    37002.374 
  999200    298.78761    -8811.772    44.531455   -8856.3035   -36383.658 
  999400    276.12888   -8821.5447    41.154387   -8862.6991   -28010.457 
  999600    304.13433   -8813.6687    45.328333    -8858.997     28381.83 
  999800    250.14813   -8828.9195    37.282203   -8866.2017    -7095.439 
 1000000    337.73781   -8815.0283    50.336612   -8865.3649   -5032.6422 
Loop time of 4499.93 on 8 procs for 1000000 steps with 51 atoms

Performance: 4.800 ns/day, 5.000 hours/ns, 222.226 timesteps/s
99.1% CPU use with 8 MPI tasks x no OpenMP threads

MPI task timing breakdown:
Section |  min time  |  avg time  |  max time  |%varavg| %total
---------------------------------------------------------------
Pair    | 3914.3     | 3956.3     | 4078.1     |  82.9 | 87.92
Neigh   | 4.5733     | 4.6724     | 4.7966     |   3.1 |  0.10
Comm    | 49.813     | 171.53     | 213.59     | 397.9 |  3.81
Output  | 0.094671   | 0.10516    | 0.17147    |   7.7 |  0.00
Modify  | 362.89     | 363.22     | 363.54     |   1.1 |  8.07
Other   |            | 4.115      |            |       |  0.09

Nlocal:    6.375 ave 8 max 5 min
Histogram: 1 0 0 5 0 0 0 0 0 2
Nghost:    921.375 ave 950 max 894 min
Histogram: 1 0 1 2 1 1 0 0 0 2
Neighs:    1818.12 ave 2269 max 1426 min
Histogram: 1 0 0 5 0 0 0 0 0 2

Total # of neighbors = 14545
Ave neighs/atom = 285.196
Neighbor list builds = 1935
Dangerous builds = 0

unfix 1
unfix output
undump 1

Please see the log.cite file for references relevant to this simulation

Total wall time: 1:15:15
