ITEM: TIMESTEP
0
ITEM: NUMBER OF ATOMS
51
ITEM: BOX BOUNDS pp pp pp
0.0000000000000000e+00 1.1000000000000000e+01
0.0000000000000000e+00 1.1002000000000001e+01
0.0000000000000000e+00 1.1000000000000000e+01
ITEM: ATOMS id type x y z 
10 1 4.603 4.603 4.603 
11 1 3.085 3.085 3.085 
12 1 3.796 3.796 3.796 
46 1 0.726 0.725 0.725 
47 1 2.26 2.259 2.26 
48 1 1.551 1.55 1.55 
19 1 4.546 4.545 6.226 
20 1 3.013 3.013 7.764 
21 1 3.721 3.721 7.053 
31 1 0.668 0.667 10.103 
32 1 2.187 2.187 8.589 
33 1 1.476 1.475 9.298 
16 1 4.546 6.225 4.546 
17 1 3.013 7.765 3.013 
18 1 3.721 7.053 3.722 
25 1 0.668 10.103 0.668 
26 1 2.188 8.589 2.188 
27 1 1.476 9.298 1.476 
4 1 4.608 6.169 6.169 
5 1 3.086 7.684 7.684 
6 1 3.799 6.974 6.974 
37 1 0.729 10.046 10.046 
38 1 2.259 8.509 8.508 
39 1 1.552 9.219 9.219 
13 1 6.225 4.546 4.546 
14 1 7.764 3.013 3.013 
15 1 7.053 3.721 3.722 
28 1 10.102 0.667 0.668 
29 1 8.589 2.187 2.188 
30 1 9.298 1.475 1.476 
1 1 6.168 4.608 6.169 
2 1 7.684 3.086 7.684 
3 1 6.974 3.799 6.974 
40 1 10.045 0.728 10.046 
41 1 8.508 2.259 8.508 
42 1 9.218 1.551 9.218 
49 2 7.496 3.486 8.967 
50 2 6.231 3.381 9.746 
51 3 6.869 3.288 10.488 
7 1 6.169 6.169 4.608 
8 1 7.684 7.684 3.086 
9 1 6.974 6.974 3.799 
43 1 10.046 10.047 0.729 
44 1 8.508 8.509 2.259 
45 1 9.219 9.219 1.552 
22 1 6.229 6.229 6.229 
23 1 7.764 7.765 7.765 
24 1 7.055 7.056 7.055 
34 1 10.108 10.108 10.107 
35 1 8.59 8.59 8.59 
36 1 9.301 9.301 9.3 
ITEM: TIMESTEP
10
ITEM: NUMBER OF ATOMS
51
ITEM: BOX BOUNDS pp pp pp
0.0000000000000000e+00 1.1000000000000000e+01
0.0000000000000000e+00 1.1002000000000001e+01
0.0000000000000000e+00 1.1000000000000000e+01
ITEM: ATOMS id type x y z 
10 1 4.60166 4.59491 4.60522 
11 1 3.08106 3.08009 3.08129 
12 1 3.78802 3.78948 3.7875 
46 1 0.737483 0.733044 0.737112 
47 1 2.27372 2.27344 2.27431 
48 1 1.56852 1.56619 1.56638 
19 1 4.51921 4.54211 6.23001 
20 1 3.00534 3.00093 7.77586 
21 1 3.70378 3.71288 7.06168 
31 1 0.68956 0.670391 10.0992 
32 1 2.193 2.19621 8.57997 
33 1 1.49242 1.48381 9.28869 
16 1 4.53924 6.23267 4.53924 
17 1 3.00253 7.77546 3.00211 
18 1 3.70645 7.06745 3.70819 
25 1 0.676491 10.0946 0.675265 
26 1 2.19377 8.58312 2.19236 
27 1 1.48352 9.29065 1.4863 
4 1 4.60949 6.16777 6.17649 
5 1 3.08212 7.68942 7.68851 
6 1 3.7895 6.98043 6.98233 
37 1 0.739629 10.0351 10.0373 
38 1 2.27219 8.49521 8.49407 
39 1 1.56871 9.20361 9.20406 
13 1 6.23062 4.54139 4.51766 
14 1 7.77694 3.00049 3.00468 
15 1 7.06201 3.71118 3.70272 
28 1 10.0986 0.670671 0.690255 
29 1 8.58039 2.19576 2.19331 
30 1 9.28829 1.48414 1.49324 
1 1 6.188 4.58434 6.17695 
2 1 7.66037 3.13702 7.74711 
3 1 6.95656 3.81783 6.94818 
40 1 10.0595 0.71546 10.0667 
41 1 8.54353 2.20829 8.43245 
42 1 9.21875 1.54751 9.20136 
49 2 7.44063 3.52359 8.96566 
50 2 6.24582 3.37638 9.77698 
51 3 6.85132 3.30364 10.4576 
7 1 6.17615 6.17053 4.60972 
8 1 7.68878 7.68918 3.08192 
9 1 6.98218 6.98126 3.78936 
43 1 10.0373 10.0352 0.740326 
44 1 8.49432 8.49591 2.27243 
45 1 9.20394 9.20271 1.56799 
22 1 6.23256 6.25631 6.23321 
23 1 7.7752 7.77206 7.77603 
24 1 7.06279 7.07259 7.06298 
34 1 10.1037 10.0859 10.1032 
35 1 8.58044 8.58414 8.58047 
36 1 9.29189 9.28355 9.29101 
ITEM: TIMESTEP
20
ITEM: NUMBER OF ATOMS
51
ITEM: BOX BOUNDS pp pp pp
0.0000000000000000e+00 1.1000000000000000e+01
0.0000000000000000e+00 1.1002000000000001e+01
0.0000000000000000e+00 1.1000000000000000e+01
ITEM: ATOMS id type x y z 
10 1 4.59647 4.59777 4.60324 
11 1 3.08464 3.08598 3.08371 
12 1 3.79257 3.79092 3.79548 
46 1 0.74705 0.733387 0.743665 
47 1 2.27312 2.27323 2.27225 
48 1 1.56822 1.56333 1.56787 
19 1 4.49322 4.54542 6.22714 
20 1 3.00939 3.00275 7.77458 
21 1 3.69852 3.71681 7.05738 
31 1 0.689394 0.667679 10.0995 
32 1 2.19029 2.19197 8.58242 
33 1 1.49087 1.4806 9.29464 
16 1 4.53489 6.23666 4.53596 
17 1 3.00293 7.77389 3.00402 
18 1 3.71113 7.06474 3.70998 
25 1 0.676758 10.0934 0.677809 
26 1 2.19052 8.58646 2.19261 
27 1 1.48423 9.28947 1.48067 
4 1 4.60659 6.169 6.17734 
5 1 3.08385 7.68523 7.68353 
6 1 3.79669 6.97764 6.98169 
37 1 0.745444 10.0303 10.0374 
38 1 2.27036 8.49865 8.49698 
39 1 1.56604 9.20355 9.20566 
13 1 6.22602 4.54479 4.4829 
14 1 7.77586 3.001 3.00712 
15 1 7.05999 3.71516 3.69562 
28 1 10.0992 0.668305 0.691332 
29 1 8.58362 2.19135 2.19035 
30 1 9.2943 1.47895 1.49068 
1 1 6.17721 4.59004 6.14668 
2 1 7.64767 3.18757 7.84106 
3 1 6.96803 3.81358 6.94308 
40 1 10.0517 0.721323 10.0597 
41 1 8.57919 2.1656 8.41222 
42 1 9.23695 1.52553 9.18622 
49 2 7.45243 3.50652 8.93189 
50 2 6.22572 3.37336 9.7929 
51 3 6.84394 3.31575 10.4843 
7 1 6.17494 6.17509 4.6074 
8 1 7.68401 7.68495 3.08321 
9 1 6.98065 6.97938 3.79713 
43 1 10.0382 10.0265 0.745596 
44 1 8.49637 8.49751 2.27023 
45 1 9.20623 9.20462 1.5675 
22 1 6.22926 6.28028 6.22957 
23 1 7.77311 7.76764 7.77282 
24 1 7.05671 7.07568 7.05904 
34 1 10.1062 10.0839 10.1041 
35 1 8.58515 8.58456 8.58313 
36 1 9.29219 9.28825 9.29571 
ITEM: TIMESTEP
30
ITEM: NUMBER OF ATOMS
51
ITEM: BOX BOUNDS pp pp pp
0.0000000000000000e+00 1.1000000000000000e+01
0.0000000000000000e+00 1.1002000000000001e+01
0.0000000000000000e+00 1.1000000000000000e+01
ITEM: ATOMS id type x y z 
10 1 4.5937 4.59699 4.60348 
11 1 3.08478 3.08523 3.08389 
12 1 3.79034 3.79159 3.79421 
46 1 0.746388 0.729627 0.74337 
47 1 2.2735 2.27408 2.2731 
48 1 1.57001 1.56305 1.56815 
19 1 4.49183 4.54998 6.2222 
20 1 3.00775 3.00117 7.77609 
21 1 3.69461 3.71725 7.05726 
31 1 0.693713 0.667147 10.1038 
32 1 2.19086 2.19132 8.58389 
33 1 1.49089 1.47883 9.29487 
16 1 4.53366 6.23932 4.53411 
17 1 3.00287 7.77472 3.0022 
18 1 3.70806 7.06608 3.71023 
25 1 0.677746 10.0944 0.676875 
26 1 2.19176 8.58475 2.19101 
27 1 1.48254 9.29217 1.48429 
4 1 4.60771 6.16956 6.18012 
5 1 3.08433 7.6855 7.68416 
6 1 3.79517 6.97767 6.98119 
37 1 0.744621 10.0299 10.039 
38 1 2.27111 8.49666 8.49453 
39 1 1.56899 9.20306 9.20639 
13 1 6.22106 4.55009 4.47791 
14 1 7.77984 2.99738 3.00542 
15 1 7.05866 3.71581 3.6872 
28 1 10.1037 0.666397 0.695488 
29 1 8.58531 2.19 2.18986 
30 1 9.29614 1.47638 1.49062 
1 1 6.17591 4.5899 6.13866 
2 1 7.65022 3.20135 7.86391 
3 1 6.96843 3.81692 6.93079 
40 1 10.0556 0.717016 10.0644 
41 1 8.57719 2.16546 8.39139 
42 1 9.24338 1.51659 9.17134 
49 2 7.46101 3.50175 8.94124 
50 2 6.21698 3.37147 9.80582 
51 3 6.83546 3.3216 10.4991 
7 1 6.17628 6.17822 4.60855 
8 1 7.6847 7.6851 3.08336 
9 1 6.97981 6.9808 3.79624 
43 1 10.0408 10.027 0.745438 
44 1 8.49427 8.49701 2.27174 
45 1 9.20717 9.20134 1.5685 
22 1 6.22382 6.27972 6.22428 
23 1 7.77351 7.76816 7.77403 
24 1 7.05692 7.07981 7.05771 
34 1 10.106 10.0816 10.1066 
35 1 8.58333 8.58489 8.58354 
36 1 9.29552 9.28414 9.29535 
ITEM: TIMESTEP
40
ITEM: NUMBER OF ATOMS
51
ITEM: BOX BOUNDS pp pp pp
0.0000000000000000e+00 1.1000000000000000e+01
0.0000000000000000e+00 1.1002000000000001e+01
0.0000000000000000e+00 1.1000000000000000e+01
ITEM: ATOMS id type x y z 
10 1 4.58625 4.60197 4.60208 
11 1 3.08382 3.08485 3.08399 
12 1 3.78798 3.79368 3.79449 
46 1 0.749314 0.727807 0.745542 
47 1 2.27483 2.27456 2.27352 
48 1 1.57139 1.56112 1.56845 
19 1 4.49357 4.55119 6.21849 
20 1 3.00414 3.0037 7.77404 
21 1 3.69208 3.71834 7.05552 
31 1 0.685954 0.666048 10.1067 
32 1 2.19261 2.18778 8.58857 
33 1 1.49037 1.47545 9.29642 
16 1 4.52723 6.24639 4.53286 
17 1 2.99797 7.77707 3.00102 
18 1 3.70905 7.06948 3.70536 
25 1 0.680268 10.093 0.678553 
26 1 2.19091 8.58488 2.1928 
27 1 1.48446 9.29127 1.48069 
4 1 4.60758 6.16992 6.18228 
5 1 3.08374 7.68652 7.68547 
6 1 3.79451 6.97853 6.98201 
37 1 0.746175 10.0285 10.0407 
38 1 2.27261 8.4972 8.49611 
39 1 1.56592 9.20183 9.20486 
13 1 6.21346 4.55682 4.46167 
14 1 7.78019 2.99647 2.99935 
15 1 7.05751 3.71801 3.67571 
28 1 10.1082 0.663684 0.683955 
29 1 8.59216 2.18392 2.18945 
30 1 9.30071 1.47013 1.48926 
1 1 6.17572 4.58423 6.11481 
2 1 7.66921 3.23224 7.89855 
3 1 6.98437 3.81843 6.92291 
40 1 10.0552 0.714824 10.0548 
41 1 8.58786 2.15443 8.35438 
42 1 9.25963 1.48915 9.11558 
49 2 7.4812 3.49359 8.9943 
50 2 6.18771 3.36498 9.85305 
51 3 6.80508 3.34277 10.5495 
7 1 6.17144 6.18395 4.60784 
8 1 7.68469 7.68639 3.08263 
9 1 6.97951 6.98451 3.79758 
43 1 10.043 10.0234 0.746378 
44 1 8.49476 8.49615 2.27171 
45 1 9.20893 9.1999 1.56862 
22 1 6.22164 6.27435 6.21958 
23 1 7.76907 7.77056 7.7701 
24 1 7.05434 7.07943 7.05472 
34 1 10.1064 10.0879 10.1078 
35 1 8.58511 8.58255 8.58684 
36 1 9.2982 9.28212 9.29543 
ITEM: TIMESTEP
50
ITEM: NUMBER OF ATOMS
51
ITEM: BOX BOUNDS pp pp pp
0.0000000000000000e+00 1.1000000000000000e+01
0.0000000000000000e+00 1.1002000000000001e+01
0.0000000000000000e+00 1.1000000000000000e+01
ITEM: ATOMS id type x y z 
10 1 4.58708 4.60246 4.60243 
11 1 3.08447 3.08468 3.08434 
12 1 3.78636 3.7947 3.79425 
46 1 0.748281 0.728021 0.744455 
47 1 2.27494 2.27403 2.27301 
48 1 1.57089 1.56109 1.56881 
19 1 4.49554 4.55045 6.21878 
20 1 3.00379 3.00445 7.77341 
21 1 3.6929 3.7183 7.05525 
31 1 0.685358 0.666629 10.1054 
32 1 2.19355 2.18731 8.58821 
33 1 1.48984 1.47676 9.29684 
16 1 4.52845 6.24632 4.53269 
17 1 2.99991 7.77694 2.99957 
18 1 3.70604 7.06931 3.70878 
25 1 0.680658 10.0931 0.677676 
26 1 2.19152 8.58551 2.19117 
27 1 1.48209 9.29111 1.48252 
4 1 4.60711 6.16907 6.18161 
5 1 3.08385 7.68638 7.68445 
6 1 3.79559 6.97774 6.98312 
37 1 0.745159 10.0282 10.0394 
38 1 2.27125 8.49679 8.49536 
39 1 1.56803 9.20284 9.20667 
13 1 6.21394 4.5564 4.46189 
14 1 7.78016 2.99735 2.9987 
15 1 7.05637 3.71754 3.67479 
28 1 10.107 0.663274 0.683207 
29 1 8.59289 2.18209 2.19103 
30 1 9.30106 1.4718 1.48591 
1 1 6.17795 4.58104 6.11552 
2 1 7.67214 3.23427 7.89871 
3 1 6.9863 3.81989 6.92605 
40 1 10.0548 0.714199 10.0511 
41 1 8.58912 2.15367 8.3504 
42 1 9.25951 1.48925 9.11187 
49 2 7.48273 3.49271 8.99876 
50 2 6.18382 3.36421 9.85937 
51 3 6.80155 3.34552 10.5555 
7 1 6.1718 6.18392 4.6074 
8 1 7.68531 7.68657 3.08361 
9 1 6.97775 6.98465 3.79619 
43 1 10.0432 10.0245 0.745733 
44 1 8.49577 8.49628 2.27146 
45 1 9.20884 9.20071 1.56775 
22 1 6.22248 6.27201 6.22098 
23 1 7.76848 7.77086 7.77001 
24 1 7.05464 7.07905 7.05408 
34 1 10.106 10.0874 10.1068 
35 1 8.58594 8.58071 8.58614 
36 1 9.29574 9.28386 9.29594 
ITEM: TIMESTEP
60
ITEM: NUMBER OF ATOMS
51
ITEM: BOX BOUNDS pp pp pp
0.0000000000000000e+00 1.1000000000000000e+01
0.0000000000000000e+00 1.1002000000000001e+01
0.0000000000000000e+00 1.1000000000000000e+01
ITEM: ATOMS id type x y z 
10 1 4.58722 4.6031 4.60248 
11 1 3.08391 3.08498 3.08438 
12 1 3.78667 3.79456 3.79426 
46 1 0.747013 0.728234 0.743612 
47 1 2.27473 2.27326 2.27292 
48 1 1.57053 1.5611 1.56802 
19 1 4.49749 4.54914 6.21877 
20 1 3.00353 3.00459 7.7725 
21 1 3.69337 3.71901 7.05575 
31 1 0.684724 0.666933 10.1045 
32 1 2.19424 2.1872 8.58823 
33 1 1.48971 1.47751 9.29656 
16 1 4.52777 6.24639 4.53414 
17 1 2.9995 7.77688 2.99994 
18 1 3.70676 7.06956 3.7084 
25 1 0.679748 10.0934 0.677225 
26 1 2.19087 8.58543 2.19104 
27 1 1.48266 9.29188 1.48183 
4 1 4.60779 6.16817 6.18207 
5 1 3.08405 7.68611 7.68443 
6 1 3.79574 6.97764 6.98298 
37 1 0.745067 10.0287 10.0392 
38 1 2.27112 8.49714 8.49541 
39 1 1.56795 9.20271 9.20708 
13 1 6.21358 4.5555 4.46208 
14 1 7.77949 2.99691 2.9978 
15 1 7.05689 3.71877 3.67364 
28 1 10.1067 0.663842 0.681587 
29 1 8.59416 2.18127 2.19204 
30 1 9.30008 1.47215 1.48382 
1 1 6.18017 4.57855 6.11584 
2 1 7.67533 3.23676 7.90053 
3 1 6.98817 3.82161 6.92892 
40 1 10.0545 0.713573 10.0477 
41 1 8.59047 2.15278 8.34552 
42 1 9.26012 1.48864 9.10839 
49 2 7.48423 3.4917 9.00316 
50 2 6.17954 3.3634 9.86622 
51 3 6.79786 3.34853 10.5617 
7 1 6.17166 6.18368 4.60717 
8 1 7.68519 7.687 3.0837 
9 1 6.97783 6.98473 3.79609 
43 1 10.0427 10.0256 0.744707 
44 1 8.4961 8.49648 2.27076 
45 1 9.2096 9.20099 1.56818 
22 1 6.22319 6.26972 6.22153 
23 1 7.76771 7.77082 7.76937 
24 1 7.05464 7.07842 7.05369 
34 1 10.1052 10.0874 10.1058 
35 1 8.58569 8.57992 8.58604 
36 1 9.29506 9.2836 9.29522 
ITEM: TIMESTEP
70
ITEM: NUMBER OF ATOMS
51
ITEM: BOX BOUNDS pp pp pp
0.0000000000000000e+00 1.1000000000000000e+01
0.0000000000000000e+00 1.1002000000000001e+01
0.0000000000000000e+00 1.1000000000000000e+01
ITEM: ATOMS id type x y z 
10 1 4.58755 4.60346 4.6026 
11 1 3.08341 3.08509 3.0845 
12 1 3.7863 3.79474 3.79394 
46 1 0.745372 0.728932 0.742336 
47 1 2.27451 2.27222 2.27253 
48 1 1.56993 1.5611 1.56743 
19 1 4.49987 4.54831 6.21946 
20 1 3.00299 3.00594 7.77223 
21 1 3.69439 3.71789 7.05467 
31 1 0.683976 0.667696 10.1035 
32 1 2.19513 2.18758 8.58835 
33 1 1.48977 1.47771 9.29574 
16 1 4.52794 6.24667 4.53531 
17 1 2.99982 7.77695 2.99967 
18 1 3.70598 7.06981 3.70928 
25 1 0.678992 10.094 0.676474 
26 1 2.19056 8.5857 2.19058 
27 1 1.48236 9.29212 1.48147 
4 1 4.60866 6.16709 6.18272 
5 1 3.08428 7.68615 7.68425 
6 1 3.79586 6.97697 6.98345 
37 1 0.744879 10.029 10.0391 
38 1 2.27124 8.49705 8.49558 
39 1 1.56788 9.20304 9.20688 
13 1 6.21395 4.55592 4.46143 
14 1 7.77952 2.99771 2.99582 
15 1 7.05603 3.71777 3.67307 
28 1 10.1053 0.664775 0.677587 
29 1 8.59451 2.18068 2.19196 
30 1 9.30092 1.47189 1.48386 
1 1 6.18299 4.57525 6.11609 
2 1 7.68006 3.24065 7.90431 
3 1 6.99099 3.82405 6.93308 
40 1 10.054 0.712791 10.0433 
41 1 8.59284 2.15115 8.33838 
42 1 9.26105 1.48764 9.10296 
49 2 7.48626 3.49019 9.00945 
50 2 6.17314 3.36222 9.87637 
51 3 6.79256 3.35302 10.5708 
7 1 6.17145 6.18322 4.60711 
8 1 7.68506 7.68765 3.08395 
9 1 6.97783 6.98474 3.79569 
43 1 10.0424 10.027 0.74389 
44 1 8.49727 8.49651 2.27079 
45 1 9.20914 9.20173 1.56721 
22 1 6.22424 6.2671 6.22134 
23 1 7.76671 7.77117 7.76818 
24 1 7.05453 7.07668 7.0538 
34 1 10.1042 10.0874 10.1045 
35 1 8.58507 8.57876 8.58551 
36 1 9.29424 9.28306 9.29452 
ITEM: TIMESTEP
80
ITEM: NUMBER OF ATOMS
51
ITEM: BOX BOUNDS pp pp pp
0.0000000000000000e+00 1.1000000000000000e+01
0.0000000000000000e+00 1.1002000000000001e+01
0.0000000000000000e+00 1.1000000000000000e+01
ITEM: ATOMS id type x y z 
10 1 4.58787 4.60368 4.60218 
11 1 3.08323 3.08502 3.08442 
12 1 3.78554 3.79509 3.79395 
46 1 0.744121 0.729672 0.741174 
47 1 2.2744 2.2715 2.27235 
48 1 1.56936 1.5611 1.56689 
19 1 4.50167 4.54657 6.21863 
20 1 3.00252 3.00565 7.77083 
21 1 3.69535 3.71932 7.05621 
31 1 0.683325 0.667992 10.1025 
32 1 2.19578 2.18771 8.58827 
33 1 1.48969 1.47822 9.29537 
16 1 4.52782 6.24677 4.53633 
17 1 2.99995 7.77694 2.99977 
18 1 3.70576 7.06993 3.70973 
25 1 0.678471 10.0945 0.676107 
26 1 2.19028 8.58587 2.19024 
27 1 1.48226 9.29237 1.48113 
4 1 4.60925 6.1662 6.18333 
5 1 3.08445 7.68593 7.68431 
6 1 3.79612 6.97674 6.98351 
37 1 0.744599 10.0293 10.0387 
38 1 2.27129 8.49707 8.49553 
39 1 1.56801 9.20307 9.20692 
13 1 6.21393 4.55538 4.4612 
14 1 7.77905 2.99777 2.99474 
15 1 7.05605 3.71821 3.67183 
28 1 10.1043 0.665667 0.674638 
29 1 8.59509 2.1801 2.19191 
30 1 9.30122 1.47175 1.48315 
1 1 6.18515 4.57291 6.11607 
2 1 7.68409 3.24397 7.90827 
3 1 6.99324 3.82621 6.93643 
40 1 10.0537 0.712097 10.0403 
41 1 8.59506 2.14975 8.33255 
42 1 9.26215 1.48638 9.09829 
49 2 7.48775 3.48892 9.01465 
50 2 6.16758 3.36124 9.88503 
51 3 6.78828 3.35684 10.5783 
7 1 6.17125 6.18291 4.60678 
8 1 7.68508 7.68813 3.08403 
9 1 6.97784 6.98498 3.79548 
43 1 10.0417 10.0281 0.742895 
44 1 8.49794 8.4967 2.27058 
45 1 9.20918 9.20216 1.56686 
22 1 6.22496 6.26493 6.22132 
23 1 7.7659 7.7711 7.76753 
24 1 7.05441 7.07561 7.05317 
34 1 10.1036 10.0876 10.1034 
35 1 8.58457 8.57814 8.58508 
36 1 9.29371 9.28234 9.29414 
ITEM: TIMESTEP
90
ITEM: NUMBER OF ATOMS
51
ITEM: BOX BOUNDS pp pp pp
0.0000000000000000e+00 1.1000000000000000e+01
0.0000000000000000e+00 1.1002000000000001e+01
0.0000000000000000e+00 1.1000000000000000e+01
ITEM: ATOMS id type x y z 
10 1 4.58795 4.60385 4.60201 
11 1 3.08306 3.08503 3.08432 
12 1 3.78541 3.795 3.79396 
46 1 0.743773 0.729881 0.740798 
47 1 2.27433 2.27127 2.27225 
48 1 1.56917 1.5611 1.56677 
19 1 4.50241 4.54687 6.21936 
20 1 3.00258 3.00649 7.77159 
21 1 3.69528 3.71806 7.05453 
31 1 0.683255 0.668018 10.1022 
32 1 2.19594 2.18778 8.58826 
33 1 1.48973 1.47827 9.29519 
16 1 4.52783 6.24681 4.53663 
17 1 3.00001 7.77693 2.99983 
18 1 3.70566 7.06998 3.70984 
25 1 0.678284 10.0946 0.67591 
26 1 2.19018 8.58591 2.19015 
27 1 1.48226 9.29248 1.48102 
4 1 4.60933 6.16599 6.1834 
5 1 3.08453 7.68592 7.68421 
6 1 3.79619 6.9765 6.98375 
37 1 0.744589 10.0293 10.0388 
38 1 2.27137 8.4971 8.49566 
39 1 1.56786 9.20313 9.20677 
13 1 6.21394 4.55535 4.46108 
14 1 7.77891 2.99787 2.99427 
15 1 7.05607 3.71812 3.67162 
28 1 10.1042 0.665802 0.674059 
29 1 8.59542 2.17988 2.19221 
30 1 9.30088 1.47193 1.48238 
1 1 6.18584 4.57211 6.11604 
2 1 7.68538 3.24508 7.90955 
3 1 6.99401 3.8269 6.93757 
40 1 10.0535 0.711977 10.0393 
41 1 8.59577 2.14937 8.33067 
42 1 9.26245 1.48603 9.09656 
49 2 7.48819 3.48851 9.01637 
50 2 6.16571 3.36092 9.8879 
51 3 6.78692 3.35811 10.5807 
7 1 6.17114 6.18279 4.60658 
8 1 7.68511 7.68831 3.08409 
9 1 6.97783 6.985 3.79533 
43 1 10.0416 10.0284 0.74258 
44 1 8.49807 8.49672 2.27059 
45 1 9.20926 9.20235 1.56666 
22 1 6.22525 6.26431 6.22118 
23 1 7.76576 7.77111 7.76725 
24 1 7.0543 7.07525 7.05324 
34 1 10.1036 10.0874 10.1032 
35 1 8.5844 8.57786 8.58497 
36 1 9.29351 9.28225 9.2939 
ITEM: TIMESTEP
100
ITEM: NUMBER OF ATOMS
51
ITEM: BOX BOUNDS pp pp pp
0.0000000000000000e+00 1.1000000000000000e+01
0.0000000000000000e+00 1.1002000000000001e+01
0.0000000000000000e+00 1.1000000000000000e+01
ITEM: ATOMS id type x y z 
10 1 4.58881 4.60528 4.60105 
11 1 3.08037 3.08466 3.08427 
12 1 3.78353 3.79549 3.79221 
46 1 0.73721 0.735546 0.732317 
47 1 2.27235 2.27006 2.26802 
48 1 1.56683 1.55575 1.56878 
19 1 4.51489 4.53912 6.21945 
20 1 3.00477 3.00771 7.77072 
21 1 3.69393 3.72042 7.04934 
31 1 0.682075 0.669336 10.0975 
32 1 2.19843 2.18963 8.58809 
33 1 1.49029 1.47975 9.29262 
16 1 4.5283 6.24742 4.54065 
17 1 3.00072 7.77827 2.99962 
18 1 3.70269 7.06968 3.71255 
25 1 0.675415 10.0985 0.673422 
26 1 2.18965 8.58711 2.18803 
27 1 1.47997 9.29341 1.48001 
4 1 4.61148 6.1614 6.18589 
5 1 3.08448 7.68496 7.68338 
6 1 3.79945 6.97453 6.98716 
37 1 0.743939 10.0298 10.0383 
38 1 2.27209 8.49727 8.49567 
39 1 1.5679 9.20332 9.20649 
13 1 6.21389 4.55576 4.45793 
14 1 7.77685 3.00174 2.98502 
15 1 7.05586 3.71277 3.67063 
28 1 10.1001 0.669055 0.660771 
29 1 8.59867 2.17727 2.19256 
30 1 9.30031 1.47254 1.4764 
1 1 6.19751 4.55975 6.11652 
2 1 7.70778 3.26404 7.93193 
3 1 7.00699 3.83908 6.95738 
40 1 10.0506 0.71 10.0227 
41 1 8.60802 2.14336 8.29867 
42 1 9.26772 1.47958 9.06632 
49 2 7.49568 3.48136 9.046 
50 2 6.13311 3.35547 9.93785 
51 3 6.76365 3.38009 10.6218 
7 1 6.17044 6.18091 4.60451 
8 1 7.68594 7.69062 3.08468 
9 1 6.97712 6.98663 3.79366 
43 1 10.0369 10.0343 0.735762 
44 1 8.49881 8.49901 2.26841 
45 1 9.21475 9.20361 1.56651 
22 1 6.22912 6.2533 6.21968 
23 1 7.76117 7.7701 7.76347 
24 1 7.05429 7.06907 7.05008 
34 1 10.1016 10.0877 10.0962 
35 1 8.58132 8.57684 8.57974 
36 1 9.29026 9.27364 9.29624 
ITEM: TIMESTEP
110
ITEM: NUMBER OF ATOMS
51
ITEM: BOX BOUNDS pp pp pp
0.0000000000000000e+00 1.1000000000000000e+01
0.0000000000000000e+00 1.1002000000000001e+01
0.0000000000000000e+00 1.1000000000000000e+01
ITEM: ATOMS id type x y z 
10 1 4.58846 4.60537 4.59988 
11 1 3.07952 3.08503 3.08456 
12 1 3.78447 3.79501 3.79099 
46 1 0.736847 0.732878 0.733701 
47 1 2.27193 2.26685 2.27067 
48 1 1.56584 1.56092 1.56355 
19 1 4.51324 4.54051 6.21766 
20 1 3.00126 3.00965 7.76871 
21 1 3.70056 3.71627 7.05242 
31 1 0.68005 0.668998 10.0961 
32 1 2.19934 2.18942 8.58785 
33 1 1.48937 1.48124 9.29239 
16 1 4.52698 6.24679 4.54155 
17 1 2.9996 7.77733 3.00072 
18 1 3.70467 7.07143 3.71164 
25 1 0.675043 10.0988 0.673712 
26 1 2.18883 8.58715 2.18779 
27 1 1.48091 9.29422 1.47974 
4 1 4.61256 6.16071 6.18586 
5 1 3.08603 7.68464 7.68437 
6 1 3.79763 6.97357 6.98569 
37 1 0.744177 10.0298 10.0382 
38 1 2.27239 8.49726 8.49556 
39 1 1.56823 9.20298 9.20619 
13 1 6.21437 4.55355 4.46019 
14 1 7.77684 2.99915 2.98632 
15 1 7.05463 3.71751 3.66631 
28 1 10.0992 0.670962 0.656299 
29 1 8.59905 2.17795 2.19158 
30 1 9.29976 1.47192 1.47533 
1 1 6.20014 4.55761 6.11697 
2 1 7.71135 3.26678 7.93632 
3 1 7.00887 3.84137 6.96167 
40 1 10.0513 0.70902 10.0209 
41 1 8.60998 2.14396 8.2946 
42 1 9.27095 1.4761 9.06218 
49 2 7.4963 3.48025 9.05068 
50 2 6.12676 3.35463 9.94741 
51 3 6.76031 3.38402 10.6277 
7 1 6.16941 6.18032 4.60283 
8 1 7.68572 7.69139 3.08438 
9 1 6.97794 6.98625 3.79335 
43 1 10.0392 10.0335 0.736561 
44 1 8.50162 8.49826 2.27037 
45 1 9.20958 9.20564 1.56368 
22 1 6.2293 6.25187 6.21917 
23 1 7.76094 7.7697 7.76314 
24 1 7.05452 7.06854 7.04925 
34 1 10.1013 10.0868 10.0973 
35 1 8.58061 8.57362 8.58242 
36 1 9.29002 9.27852 9.29056 
ITEM: TIMESTEP
120
ITEM: NUMBER OF ATOMS
51
ITEM: BOX BOUNDS pp pp pp
0.0000000000000000e+00 1.1000000000000000e+01
0.0000000000000000e+00 1.1002000000000001e+01
0.0000000000000000e+00 1.1000000000000000e+01
ITEM: ATOMS id type x y z 
10 1 4.58853 4.60541 4.59992 
11 1 3.07945 3.085 3.08402 
12 1 3.7839 3.79462 3.79156 
46 1 0.736712 0.733517 0.733338 
47 1 2.27219 2.26698 2.271 
48 1 1.56538 1.56108 1.56319 
19 1 4.51432 4.53995 6.21757 
20 1 3.00212 3.01005 7.76818 
21 1 3.70059 3.71665 7.05201 
31 1 0.679258 0.669095 10.0956 
32 1 2.19902 2.19005 8.58809 
33 1 1.48982 1.48038 9.29165 
16 1 4.52705 6.24691 4.54142 
17 1 2.99965 7.77749 3.00077 
18 1 3.7044 7.07128 3.71178 
25 1 0.675076 10.0986 0.673605 
26 1 2.18891 8.5873 2.18792 
27 1 1.48078 9.29398 1.47954 
4 1 4.61244 6.15984 6.18605 
5 1 3.08618 7.68437 7.68438 
6 1 3.79791 6.97345 6.9857 
37 1 0.743825 10.0298 10.038 
38 1 2.27226 8.49727 8.49576 
39 1 1.56827 9.20332 9.20623 
13 1 6.21436 4.55348 4.45986 
14 1 7.77669 2.99922 2.98546 
15 1 7.05506 3.7172 3.66669 
28 1 10.0986 0.67053 0.655421 
29 1 8.59897 2.17734 2.19187 
30 1 9.29969 1.47321 1.47375 
1 1 6.2004 4.55703 6.11762 
2 1 7.71265 3.26788 7.93802 
3 1 7.00942 3.84239 6.9632 
40 1 10.0515 0.708456 10.0202 
41 1 8.61125 2.14369 8.29356 
42 1 9.27168 1.47533 9.05996 
49 2 7.49645 3.47986 9.05258 
50 2 6.12423 3.3543 9.9511 
51 3 6.75911 3.38555 10.63 
7 1 6.16939 6.18038 4.60266 
8 1 7.68578 7.69158 3.08464 
9 1 6.97789 6.98612 3.7929 
43 1 10.0386 10.0337 0.736021 
44 1 8.50202 8.49883 2.27001 
45 1 9.20947 9.20551 1.56376 
22 1 6.22994 6.25114 6.21836 
23 1 7.76132 7.76942 7.76257 
24 1 7.05357 7.06834 7.04987 
34 1 10.1014 10.0866 10.0973 
35 1 8.58044 8.5731 8.58294 
36 1 9.2901 9.27935 9.28937 
ITEM: TIMESTEP
130
ITEM: NUMBER OF ATOMS
51
ITEM: BOX BOUNDS pp pp pp
0.0000000000000000e+00 1.1000000000000000e+01
0.0000000000000000e+00 1.1002000000000001e+01
0.0000000000000000e+00 1.1000000000000000e+01
ITEM: ATOMS id type x y z 
10 1 4.59169 4.60433 4.59251 
11 1 3.0727 3.08301 3.08152 
12 1 3.78011 3.78967 3.78823 
46 1 0.726277 0.742299 0.719112 
47 1 2.26546 2.26148 2.26757 
48 1 1.55737 1.56266 1.55511 
19 1 4.53814 4.52793 6.21401 
20 1 3.00563 3.01444 7.76557 
21 1 3.71188 3.7112 7.04729 
31 1 0.67209 0.673835 10.0886 
32 1 2.19203 2.20588 8.58838 
33 1 1.50319 1.46342 9.27733 
16 1 4.52608 6.2441 4.54189 
17 1 2.99818 7.77852 3.00376 
18 1 3.70352 7.0721 3.71461 
25 1 0.66878 10.1008 0.66928 
26 1 2.18654 8.58598 2.18518 
27 1 1.48234 9.30201 1.48292 
4 1 4.61571 6.14957 6.18861 
5 1 3.09306 7.67828 7.68792 
6 1 3.79984 6.96825 6.98322 
37 1 0.741461 10.0283 10.0377 
38 1 2.27459 8.49606 8.49645 
39 1 1.57043 9.20375 9.2034 
13 1 6.21301 4.54828 4.45818 
14 1 7.76926 3.0015 2.97003 
15 1 7.06262 3.71621 3.66999 
28 1 10.0898 0.675173 0.631394 
29 1 8.59859 2.17766 2.18136 
30 1 9.2959 1.47655 1.45751 
1 1 6.22097 4.54093 6.12816 
2 1 7.74827 3.3031 7.9876 
3 1 7.02778 3.87126 7.01226 
40 1 10.0486 0.702865 9.99489 
41 1 8.63747 2.14959 8.24807 
42 1 9.2934 1.45129 8.99282 
49 2 7.50028 3.46793 9.10977 
50 2 6.04715 3.34473 10.063 
51 3 6.72387 3.43193 10.6974 
7 1 6.16665 6.17432 4.59332 
8 1 7.68867 7.69798 3.08643 
9 1 6.97928 6.9852 3.78587 
43 1 10.0326 10.0425 0.723535 
44 1 8.50778 8.50637 2.26937 
45 1 9.20853 9.21102 1.55604 
22 1 6.23442 6.23476 6.20931 
23 1 7.75626 7.76309 7.75874 
24 1 7.05523 7.05828 7.04337 
34 1 10.1043 10.086 10.0822 
35 1 8.57581 8.574 8.57236 
36 1 9.28441 9.26549 9.29398 
ITEM: TIMESTEP
140
ITEM: NUMBER OF ATOMS
51
ITEM: BOX BOUNDS pp pp pp
0.0000000000000000e+00 1.1000000000000000e+01
0.0000000000000000e+00 1.1002000000000001e+01
0.0000000000000000e+00 1.1000000000000000e+01
ITEM: ATOMS id type x y z 
10 1 4.59228 4.60276 4.59304 
11 1 3.07256 3.08231 3.08247 
12 1 3.78096 3.79095 3.78692 
46 1 0.725459 0.740385 0.718845 
47 1 2.26517 2.26244 2.26734 
48 1 1.55649 1.56268 1.5554 
19 1 4.53681 4.52658 6.21334 
20 1 3.00623 3.01514 7.76421 
21 1 3.71388 3.71344 7.04905 
31 1 0.673712 0.665249 10.0834 
32 1 2.19815 2.1974 8.58354 
33 1 1.49275 1.47916 9.28174 
16 1 4.52642 6.24221 4.54301 
17 1 2.99801 7.77878 3.00371 
18 1 3.70273 7.07227 3.71435 
25 1 0.671663 10.106 0.672528 
26 1 2.18792 8.59268 2.18816 
27 1 1.47681 9.29272 1.47619 
4 1 4.61565 6.14915 6.18491 
5 1 3.09275 7.67845 7.68601 
6 1 3.80178 6.96576 6.98704 
37 1 0.74446 10.028 10.037 
38 1 2.27609 8.49595 8.49459 
39 1 1.57125 9.20106 9.2049 
13 1 6.21895 4.54725 4.46583 
14 1 7.77464 3.00118 2.9751 
15 1 7.05377 3.71654 3.65963 
28 1 10.0879 0.676952 0.626344 
29 1 8.59731 2.17814 2.18012 
30 1 9.29438 1.47814 1.45468 
1 1 6.22417 4.54026 6.13001 
2 1 7.74862 3.30377 7.99194 
3 1 7.02901 3.8723 7.01599 
40 1 10.0498 0.702226 9.99081 
41 1 8.63983 2.15122 8.24921 
42 1 9.29585 1.45119 8.99049 
49 2 7.49908 3.4678 9.11289 
50 2 6.04182 3.34447 10.073 
51 3 6.72213 3.43498 10.699 
7 1 6.16738 6.17307 4.5908 
8 1 7.68873 7.69686 3.08557 
9 1 6.97949 6.9871 3.78712 
43 1 10.0336 10.0418 0.723792 
44 1 8.50606 8.50552 2.26949 
45 1 9.2087 9.21203 1.55799 
22 1 6.23523 6.23548 6.20999 
23 1 7.75591 7.76243 7.75716 
24 1 7.05415 7.05747 7.0423 
34 1 10.1015 10.0847 10.087 
35 1 8.5738 8.56703 8.57859 
36 1 9.28616 9.27464 9.28042 
ITEM: TIMESTEP
150
ITEM: NUMBER OF ATOMS
51
ITEM: BOX BOUNDS pp pp pp
0.0000000000000000e+00 1.1000000000000000e+01
0.0000000000000000e+00 1.1002000000000001e+01
0.0000000000000000e+00 1.1000000000000000e+01
ITEM: ATOMS id type x y z 
10 1 4.59272 4.60257 4.59308 
11 1 3.0725 3.08224 3.08257 
12 1 3.78105 3.79089 3.78664 
46 1 0.724861 0.740254 0.718589 
47 1 2.26437 2.26237 2.26697 
48 1 1.55639 1.5624 1.55494 
19 1 4.5374 4.52679 6.21358 
20 1 3.00677 3.01511 7.76518 
21 1 3.71303 3.71278 7.04777 
31 1 0.675214 0.665062 10.0827 
32 1 2.19955 2.19541 8.58339 
33 1 1.48929 1.48229 9.28198 
16 1 4.52655 6.24211 4.54305 
17 1 2.99828 7.77938 3.00448 
18 1 3.7024 7.07116 3.71344 
25 1 0.670071 10.1045 0.671267 
26 1 2.18688 8.5902 2.18684 
27 1 1.47872 9.29726 1.47928 
4 1 4.61569 6.14895 6.18445 
5 1 3.09286 7.67807 7.68609 
6 1 3.80222 6.96563 6.98683 
37 1 0.744936 10.0274 10.037 
38 1 2.2767 8.49546 8.49441 
39 1 1.57159 9.20063 9.20435 
13 1 6.21863 4.54721 4.46534 
14 1 7.77413 3.00129 2.97394 
15 1 7.05476 3.71596 3.66103 
28 1 10.0883 0.677373 0.625261 
29 1 8.59753 2.17866 2.17944 
30 1 9.29346 1.47772 1.45383 
1 1 6.22518 4.54014 6.13098 
2 1 7.74878 3.30417 7.99356 
3 1 7.02942 3.87267 7.01731 
40 1 10.0503 0.701407 9.99003 
41 1 8.6405 2.152 8.2491 
42 1 9.29662 1.4512 8.98944 
49 2 7.49851 3.4678 9.11425 
50 2 6.03952 3.34433 10.0764 
51 3 6.72184 3.43615 10.6999 
7 1 6.16722 6.17299 4.59067 
8 1 7.68878 7.69712 3.08544 
9 1 6.97957 6.9867 3.78701 
43 1 10.0337 10.0421 0.723679 
44 1 8.50631 8.50615 2.26916 
45 1 9.20877 9.21223 1.55787 
22 1 6.2352 6.23555 6.2096 
23 1 7.75596 7.76228 7.75711 
24 1 7.05422 7.05738 7.04223 
34 1 10.1009 10.0852 10.0857 
35 1 8.57424 8.5676 8.57762 
36 1 9.28558 9.27367 9.28221 
ITEM: TIMESTEP
160
ITEM: NUMBER OF ATOMS
51
ITEM: BOX BOUNDS pp pp pp
0.0000000000000000e+00 1.1000000000000000e+01
0.0000000000000000e+00 1.1002000000000001e+01
0.0000000000000000e+00 1.1000000000000000e+01
ITEM: ATOMS id type x y z 
10 1 4.59283 4.60244 4.59314 
11 1 3.07245 3.08223 3.08254 
12 1 3.78107 3.79078 3.7866 
46 1 0.724772 0.740198 0.718457 
47 1 2.2642 2.26233 2.26688 
48 1 1.55632 1.56238 1.55485 
19 1 4.53729 4.52664 6.2132 
20 1 3.00662 3.01491 7.76482 
21 1 3.71349 3.71302 7.0484 
31 1 0.675218 0.665195 10.0826 
32 1 2.19951 2.19539 8.5834 
33 1 1.48921 1.48229 9.28195 
16 1 4.52651 6.24202 4.54293 
17 1 2.99826 7.77941 3.00453 
18 1 3.70237 7.07112 3.71337 
25 1 0.670161 10.1046 0.671235 
26 1 2.18681 8.59025 2.18685 
27 1 1.47873 9.29734 1.47927 
4 1 4.61574 6.14882 6.18447 
5 1 3.09294 7.67797 7.68615 
6 1 3.80224 6.9656 6.9867 
37 1 0.74496 10.0274 10.037 
38 1 2.27672 8.49544 8.49438 
39 1 1.57164 9.20061 9.20448 
13 1 6.21858 4.54719 4.46524 
14 1 7.77396 3.00136 2.97365 
15 1 7.05502 3.71578 3.66147 
28 1 10.0883 0.677538 0.62503 
29 1 8.59747 2.17867 2.17927 
30 1 9.29346 1.47785 1.45359 
1 1 6.22533 4.54014 6.13117 
2 1 7.74883 3.30427 7.99397 
3 1 7.02949 3.87279 7.01762 
40 1 10.0504 0.701241 9.98976 
41 1 8.64068 2.15219 8.24908 
42 1 9.29681 1.4512 8.98918 
49 2 7.49836 3.4678 9.1146 
50 2 6.03894 3.3443 10.0772 
51 3 6.72177 3.43645 10.7002 
7 1 6.16728 6.17289 4.59061 
8 1 7.6888 7.69709 3.08538 
9 1 6.97958 6.98676 3.78704 
43 1 10.0337 10.042 0.72353 
44 1 8.50623 8.50602 2.26905 
45 1 9.20878 9.21253 1.55818 
22 1 6.23535 6.23551 6.2094 
23 1 7.75612 7.76223 7.75695 
24 1 7.05395 7.05736 7.04246 
34 1 10.1009 10.0849 10.0859 
35 1 8.57412 8.56718 8.5781 
36 1 9.28579 9.2744 9.28122 
ITEM: TIMESTEP
170
ITEM: NUMBER OF ATOMS
51
ITEM: BOX BOUNDS pp pp pp
0.0000000000000000e+00 1.1000000000000000e+01
0.0000000000000000e+00 1.1002000000000001e+01
0.0000000000000000e+00 1.1000000000000000e+01
ITEM: ATOMS id type x y z 
10 1 4.5929 4.60237 4.59315 
11 1 3.07242 3.08222 3.08252 
12 1 3.78106 3.79071 3.78658 
46 1 0.724728 0.740167 0.718379 
47 1 2.26413 2.26233 2.26684 
48 1 1.55626 1.5624 1.55481 
19 1 4.53737 4.52664 6.2132 
20 1 3.00668 3.01489 7.76485 