
     Program PWSCF v.7.1 starts on 25May2025 at 20:18:42 

     This program is part of the open-source Quantum ESPRESSO suite
     for quantum simulation of materials; please cite
         "P. Giannozzi et al., J. Phys.:Condens. Matter 21 395502 (2009);
         "P. Giannozzi et al., J. Phys.:Condens. Matter 29 465901 (2017);
         "P. Giannozzi et al., J. Chem. Phys. 152 154105 (2020);
          URL http://www.quantum-espresso.org", 
     in publications or presentations arising from this work. More details at
     http://www.quantum-espresso.org/quote

     Parallel version (MPI), running on    16 processors

     MPI processes distributed on     1 nodes
     245649 MiB available memory on the printing compute node when the environment starts

     Reading input from input.pwi
Warning: card &CELL ignored
Warning: card / ignored
Warning: card &FCP ignored
Warning: card / ignored
Warning: card &RISM ignored
Warning: card / ignored

     Current dimensions of program PWSCF are:
     Max number of different atomic species (ntypx) = 10
     Max number of k-points (npk) =  40000
     Max angular momentum in pseudopotentials (lmaxx) =  4
     file C.pbe-n-kjpaw_psl.1.0.0.UPF: wavefunction(s)  2S 2P renormalized
     file O.pbe-n-kjpaw_psl.0.1.UPF: wavefunction(s)  2P renormalized

     IMPORTANT: XC functional enforced from input :
     Exchange-correlation= PBE
                           (   1   4   3   4   0   0   0)
     Any further DFT definition will be discarded
     Please, verify this is what you really want


     gamma-point specific algorithms are used

     R & G space division:  proc/nbgrp/npool/nimage =      16
     Subspace diagonalization in iterative solution of the eigenvalue problem:
     a serial algorithm will be used


     Parallelization info
     --------------------
     sticks:   dense  smooth     PW     G-vecs:    dense   smooth      PW
     Min         696     347     85                55228    19539    2442
     Max         698     350     88                55234    19546    2448
     Sum       11141    5573   1389               883707   312673   39127

     Using Slab Decomposition



     bravais-lattice index     =            0
     lattice parameter (alat)  =      18.7045  a.u.
     unit-cell volume          =    6543.9346 (a.u.)^3
     number of atoms/cell      =           41
     number of atomic types    =            2
     number of electrons       =       166.00 (up:  83.00, down:  83.00)
     number of Kohn-Sham states=          100
     kinetic-energy cutoff     =      50.0000  Ry
     charge density cutoff     =     400.0000  Ry
     scf convergence threshold =      1.0E-06
     mixing beta               =       0.3000
     number of iterations used =            8  plain     mixing
     energy convergence thresh.=      1.0E-04
     force convergence thresh. =      1.0E-03
     Exchange-correlation= PBE
                           (   1   4   3   4   0   0   0)
     nstep                     =         1000


     celldm(1)=  18.704509  celldm(2)=   0.000000  celldm(3)=   0.000000
     celldm(4)=   0.000000  celldm(5)=   0.000000  celldm(6)=   0.000000

     crystal axes: (cart. coord. in units of alat)
               a(1) = (   1.000000   0.000000   0.000000 )  
               a(2) = (   0.000000   1.000000   0.000000 )  
               a(3) = (   0.000000   0.000000   1.000000 )  

     reciprocal axes: (cart. coord. in units 2 pi/alat)
               b(1) = (  1.000000  0.000000  0.000000 )  
               b(2) = (  0.000000  1.000000  0.000000 )  
               b(3) = (  0.000000  0.000000  1.000000 )  


     PseudoPot. # 1 for C  read from file:
     /home/ana.bisette/espresso/pseudo/C.pbe-n-kjpaw_psl.1.0.0.UPF
     MD5 check sum: 5d2aebdfa2cae82b50a7e79e9516da0f
     Pseudo is Projector augmented-wave + core cor, Zval =  4.0
     Generated using "atomic" code by A. Dal Corso  v.5.1
     Shape of augmentation charge: PSQ
     Using radial grid of 1073 points,  4 beta functions with: 
                l(1) =   0
                l(2) =   0
                l(3) =   1
                l(4) =   1
     Q(r) pseudized with 0 coefficients 


     PseudoPot. # 2 for O  read from file:
     /home/ana.bisette/espresso/pseudo/O.pbe-n-kjpaw_psl.0.1.UPF
     MD5 check sum: 0234752ac141de4415c5fc33072bef88
     Pseudo is Projector augmented-wave + core cor, Zval =  6.0
     Generated using "atomic" code by A. Dal Corso  v.5.0.99 svn rev. 10869
     Shape of augmentation charge: BESSEL
     Using radial grid of 1095 points,  4 beta functions with: 
                l(1) =   0
                l(2) =   0
                l(3) =   1
                l(4) =   1
     Q(r) pseudized with 0 coefficients 


     atomic species   valence    mass     pseudopotential
        C              4.00    12.01100     C ( 1.00)
        O              6.00    15.99900     O ( 1.00)

     Starting magnetic structure 
     atomic species   magnetization
        C            0.000
        O            0.000

     No symmetry found



   Cartesian axes

     site n.     atom                  positions (alat units)
         1           C   tau(   1) = (   0.1102243   0.1102243   0.1102243  )
         2           C   tau(   2) = (   0.0202061   0.0202061   0.0202061  )
         3           C   tau(   3) = (   0.2002425   0.2002425   0.0202061  )
         4           C   tau(   4) = (   0.0202061   0.2002425   0.2002425  )
         5           C   tau(   5) = (   0.2002425   0.0202061   0.2002425  )
         6           C   tau(   6) = (   0.8602748   0.8602748   0.8602748  )
         7           C   tau(   7) = (   0.9501920   0.9501920   0.9501920  )
         8           C   tau(   8) = (   0.7702566   0.7702566   0.9502930  )
         9           C   tau(   9) = (   0.7702566   0.9502930   0.7702566  )
        10           C   tau(  10) = (   0.9502930   0.7702566   0.7702566  )
        11           C   tau(  11) = (   0.3602748   0.3602748   0.8602748  )
        12           C   tau(  12) = (   0.2702566   0.2702566   0.9502930  )
        13           C   tau(  13) = (   0.4501920   0.4501920   0.9501920  )
        14           C   tau(  14) = (   0.4502930   0.2702566   0.7702566  )
        15           C   tau(  15) = (   0.2702566   0.4502930   0.7702566  )
        16           C   tau(  16) = (   0.3602748   0.8602748   0.3602748  )
        17           C   tau(  17) = (   0.2702566   0.9502930   0.2702566  )
        18           C   tau(  18) = (   0.4502930   0.7702566   0.2702566  )
        19           C   tau(  19) = (   0.4501920   0.9501920   0.4501920  )
        20           C   tau(  20) = (   0.2702566   0.7702566   0.4502930  )
        21           C   tau(  21) = (   0.6102243   0.6102243   0.1102243  )
        22           C   tau(  22) = (   0.5202061   0.7002425   0.2002425  )
        23           C   tau(  23) = (   0.7002425   0.5202061   0.2002425  )
        24           C   tau(  24) = (   0.5202061   0.5202061   0.0202061  )
        25           C   tau(  25) = (   0.7002425   0.7002425   0.0202061  )
        26           C   tau(  26) = (   0.8602748   0.3602748   0.3602748  )
        27           C   tau(  27) = (   0.9502930   0.2702566   0.2702566  )
        28           C   tau(  28) = (   0.7702566   0.4502930   0.2702566  )
        29           C   tau(  29) = (   0.7702566   0.2702566   0.4502930  )
        30           C   tau(  30) = (   0.9501920   0.4501920   0.4501920  )
        31           C   tau(  31) = (   0.1102243   0.6102243   0.6102243  )
        32           C   tau(  32) = (   0.0202061   0.5202061   0.5202061  )
        33           C   tau(  33) = (   0.2002425   0.7002425   0.5202061  )
        34           C   tau(  34) = (   0.0202061   0.7002425   0.7002425  )
        35           C   tau(  35) = (   0.2002425   0.5202061   0.7002425  )
        36           C   tau(  36) = (   0.6102243   0.1102243   0.6102243  )
        37           C   tau(  37) = (   0.7002425   0.0202061   0.7002425  )
        38           C   tau(  38) = (   0.5202061   0.0202061   0.5202061  )
        39           C   tau(  39) = (   0.5202061   0.2002425   0.7002425  )
        40           C   tau(  40) = (   0.7002425   0.2002425   0.5202061  )
        41           O   tau(  41) = (   0.0056577  -0.0159628   0.1514447  )

     number of k points=     1  Gaussian smearing, width (Ry)=  0.0001
                       cart. coord. in units 2pi/alat
        k(    1) = (   0.0000000   0.0000000   0.0000000), wk =   1.0000000

     Dense  grid:   441854 G-vectors     FFT dimensions: ( 120, 120, 120)

     Smooth grid:   156337 G-vectors     FFT dimensions: (  90,  90,  90)

     Estimated max dynamical RAM per process >     113.86 MB

     Estimated total dynamical RAM >       1.78 GB

     Check: negative core charge=   -0.000004
     Generating pointlists ...
     new r_m :   0.0500 (alat units)  0.9352 (a.u.) for type    1
     new r_m :   0.0565 (alat units)  1.0563 (a.u.) for type    2

     Initial potential from superposition of free atoms

     starting charge     165.9983, renormalised to     166.0000
     Starting wfcs are  164 randomized atomic wfcs
     Checking if some PAW data can be deallocated... 

     total cpu time spent up to now is        1.7 secs

     Self-consistent Calculation

     iteration #  1     ecut=    50.00 Ry     beta= 0.30
     Davidson diagonalization with overlap
     ethr =  1.00E-02,  avg # of iterations =  2.0

     total cpu time spent up to now is        3.3 secs

     total energy              =    -775.74763173 Ry
     estimated scf accuracy    <       5.80526872 Ry

     total magnetization       =     0.00 Bohr mag/cell
     absolute magnetization    =     0.05 Bohr mag/cell

     iteration #  2     ecut=    50.00 Ry     beta= 0.30
     Davidson diagonalization with overlap
     ethr =  3.50E-03,  avg # of iterations =  2.0

     total cpu time spent up to now is        4.6 secs

     total energy              =    -775.06496998 Ry
     estimated scf accuracy    <       2.44691254 Ry

     total magnetization       =     0.00 Bohr mag/cell
     absolute magnetization    =     0.06 Bohr mag/cell

     iteration #  3     ecut=    50.00 Ry     beta= 0.30
     Davidson diagonalization with overlap
     ethr =  1.47E-03,  avg # of iterations =  2.0

     total cpu time spent up to now is        6.0 secs

     total energy              =    -775.33201978 Ry
     estimated scf accuracy    <       1.24245930 Ry

     total magnetization       =    -0.00 Bohr mag/cell
     absolute magnetization    =     0.03 Bohr mag/cell

     iteration #  4     ecut=    50.00 Ry     beta= 0.30
     Davidson diagonalization with overlap
     ethr =  7.48E-04,  avg # of iterations =  2.0

     total cpu time spent up to now is        7.3 secs

     total energy              =    -775.34675336 Ry
     estimated scf accuracy    <       0.35197183 Ry

     total magnetization       =    -0.00 Bohr mag/cell
     absolute magnetization    =     0.02 Bohr mag/cell

     iteration #  5     ecut=    50.00 Ry     beta= 0.30
     Davidson diagonalization with overlap
     ethr =  2.12E-04,  avg # of iterations =  3.0

     total cpu time spent up to now is        8.7 secs

     total energy              =    -775.36936913 Ry
     estimated scf accuracy    <       0.04308969 Ry

     total magnetization       =    -0.00 Bohr mag/cell
     absolute magnetization    =     0.02 Bohr mag/cell

     iteration #  6     ecut=    50.00 Ry     beta= 0.30
     Davidson diagonalization with overlap
     ethr =  2.60E-05,  avg # of iterations = 14.5

     total cpu time spent up to now is       10.7 secs

     total energy              =    -775.37090574 Ry
     estimated scf accuracy    <       0.02602497 Ry

     total magnetization       =    -0.00 Bohr mag/cell
     absolute magnetization    =     0.02 Bohr mag/cell

     iteration #  7     ecut=    50.00 Ry     beta= 0.30
     Davidson diagonalization with overlap
     ethr =  1.57E-05,  avg # of iterations =  4.0

     total cpu time spent up to now is       12.1 secs

     total energy              =    -775.37772312 Ry
     estimated scf accuracy    <       0.01683704 Ry

     total magnetization       =    -0.00 Bohr mag/cell
     absolute magnetization    =     0.01 Bohr mag/cell

     iteration #  8     ecut=    50.00 Ry     beta= 0.30
     Davidson diagonalization with overlap
     ethr =  1.01E-05,  avg # of iterations =  1.0

     total cpu time spent up to now is       13.3 secs

     total energy              =    -775.37474552 Ry
     estimated scf accuracy    <       0.01307480 Ry

     total magnetization       =     0.00 Bohr mag/cell
     absolute magnetization    =     0.01 Bohr mag/cell

     iteration #  9     ecut=    50.00 Ry     beta= 0.30
     Davidson diagonalization with overlap
     ethr =  7.88E-06,  avg # of iterations =  3.0

     total cpu time spent up to now is       14.7 secs

     total energy              =    -775.37608592 Ry
     estimated scf accuracy    <       0.00050750 Ry

     total magnetization       =     0.00 Bohr mag/cell
     absolute magnetization    =     0.01 Bohr mag/cell

     iteration # 10     ecut=    50.00 Ry     beta= 0.30
     Davidson diagonalization with overlap
     ethr =  3.06E-07,  avg # of iterations =  5.0

     total cpu time spent up to now is       16.2 secs

     total energy              =    -775.37600128 Ry
     estimated scf accuracy    <       0.00116949 Ry

     total magnetization       =     0.00 Bohr mag/cell
     absolute magnetization    =     0.01 Bohr mag/cell

     iteration # 11     ecut=    50.00 Ry     beta= 0.30
     Davidson diagonalization with overlap
     ethr =  3.06E-07,  avg # of iterations =  4.0

     total cpu time spent up to now is       17.6 secs

     total energy              =    -775.37613504 Ry
     estimated scf accuracy    <       0.00005601 Ry

     total magnetization       =     0.00 Bohr mag/cell
     absolute magnetization    =     0.01 Bohr mag/cell

     iteration # 12     ecut=    50.00 Ry     beta= 0.30
     Davidson diagonalization with overlap
     ethr =  3.37E-08,  avg # of iterations =  4.0

     total cpu time spent up to now is       19.0 secs

     total energy              =    -775.37614610 Ry
     estimated scf accuracy    <       0.00001003 Ry

     total magnetization       =     0.00 Bohr mag/cell
     absolute magnetization    =     0.01 Bohr mag/cell

     iteration # 13     ecut=    50.00 Ry     beta= 0.30
     Davidson diagonalization with overlap
     ethr =  6.05E-09,  avg # of iterations =  3.0

     total cpu time spent up to now is       20.3 secs

     total energy              =    -775.37614370 Ry
     estimated scf accuracy    <       0.00001739 Ry

     total magnetization       =     0.00 Bohr mag/cell
     absolute magnetization    =     0.01 Bohr mag/cell

     iteration # 14     ecut=    50.00 Ry     beta= 0.30
     Davidson diagonalization with overlap
     ethr =  6.05E-09,  avg # of iterations =  2.0

     Magnetic moment per site  (integrated on atomic sphere of radius R)
     atom   1 (R=0.050)  charge=  1.0044  magn=  0.0001
     atom   2 (R=0.050)  charge=  1.1571  magn= -0.0000
     atom   3 (R=0.050)  charge=  1.1217  magn= -0.0000
     atom   4 (R=0.050)  charge=  1.1125  magn= -0.0000
     atom   5 (R=0.050)  charge=  1.1113  magn= -0.0000
     atom   6 (R=0.050)  charge=  1.0118  magn= -0.0000
     atom   7 (R=0.050)  charge=  1.1138  magn=  0.0001
     atom   8 (R=0.050)  charge=  1.1150  magn= -0.0001
     atom   9 (R=0.050)  charge=  1.1161  magn=  0.0000
     atom  10 (R=0.050)  charge=  1.1164  magn= -0.0000
     atom  11 (R=0.050)  charge=  1.0140  magn=  0.0000
     atom  12 (R=0.050)  charge=  1.1197  magn=  0.0001
     atom  13 (R=0.050)  charge=  1.1115  magn=  0.0000
     atom  14 (R=0.050)  charge=  1.1141  magn= -0.0000
     atom  15 (R=0.050)  charge=  1.1141  magn=  0.0000
     atom  16 (R=0.050)  charge=  1.0132  magn= -0.0000
     atom  17 (R=0.050)  charge=  1.1184  magn= -0.0000
     atom  18 (R=0.050)  charge=  1.1142  magn=  0.0000
     atom  19 (R=0.050)  charge=  1.1118  magn= -0.0000
     atom  20 (R=0.050)  charge=  1.1144  magn=  0.0000
     atom  21 (R=0.050)  charge=  1.0134  magn= -0.0000
     atom  22 (R=0.050)  charge=  1.1139  magn= -0.0000
     atom  23 (R=0.050)  charge=  1.1140  magn= -0.0000
     atom  24 (R=0.050)  charge=  1.1147  magn= -0.0000
     atom  25 (R=0.050)  charge=  1.1111  magn=  0.0001
     atom  26 (R=0.050)  charge=  1.0134  magn= -0.0000
     atom  27 (R=0.050)  charge=  1.1175  magn= -0.0000
     atom  28 (R=0.050)  charge=  1.1141  magn=  0.0000
     atom  29 (R=0.050)  charge=  1.1143  magn=  0.0000
     atom  30 (R=0.050)  charge=  1.1117  magn= -0.0000
     atom  31 (R=0.050)  charge=  1.0134  magn=  0.0000
     atom  32 (R=0.050)  charge=  1.1142  magn=  0.0000
     atom  33 (R=0.050)  charge=  1.1140  magn= -0.0000
     atom  34 (R=0.050)  charge=  1.1119  magn=  0.0000
     atom  35 (R=0.050)  charge=  1.1143  magn= -0.0000
     atom  36 (R=0.050)  charge=  1.0134  magn= -0.0000
     atom  37 (R=0.050)  charge=  1.1117  magn= -0.0000
     atom  38 (R=0.050)  charge=  1.1142  magn=  0.0000
     atom  39 (R=0.050)  charge=  1.1144  magn=  0.0000
     atom  40 (R=0.050)  charge=  1.1142  magn= -0.0000
     atom  41 (R=0.056)  charge=  3.5584  magn= -0.0003

     total cpu time spent up to now is       21.6 secs

     End of self-consistent calculation

 ------ SPIN UP ------------


          k = 0.0000 0.0000 0.0000 ( 19564 PWs)   bands (ev):

   -23.4264 -18.2972 -17.9876 -17.7944 -17.7801 -17.6900 -17.6420 -17.2742
   -16.7298 -15.6046 -15.4204 -15.3926 -15.2214 -15.2126 -15.2006 -15.1991
   -15.1685 -14.9653 -14.5389 -14.1864 -14.1742 -14.1390 -14.0792 -13.8081
   -13.0727 -10.8339 -10.5221 -10.5094 -10.3420 -10.3114 -10.2417 -10.2378
   -10.1893  -9.9924  -9.8548  -9.5012  -9.4759  -9.4416  -9.4144  -9.2401
    -9.0208  -8.9093  -8.8873  -8.8183  -8.7662  -8.6813  -8.5843  -8.5780
    -8.4781  -7.1295  -5.8966  -4.5180  -4.4827  -4.2473  -4.2281  -4.1747
    -4.1332  -4.0544  -4.0381  -3.9377  -3.8841  -3.8571  -3.8342  -3.8183
    -3.7898  -3.7538  -3.5850  -3.5169  -3.4440  -3.4120  -3.3804  -3.3560
    -3.2376  -3.2178  -3.1398  -3.1109  -3.0789  -3.0645  -2.8428  -2.8395
    -2.7491  -1.8605  -1.4710  -1.0973   2.1288   2.1367   2.1864   2.2056
     2.2683   2.3364   2.3752   2.4054   2.5082   2.5777   2.6317   2.6634
     2.7165   2.7353   2.7833   2.7934

 ------ SPIN DOWN ----------


          k = 0.0000 0.0000 0.0000 ( 19564 PWs)   bands (ev):

   -23.4267 -18.2972 -17.9876 -17.7944 -17.7802 -17.6900 -17.6420 -17.2742
   -16.7299 -15.6046 -15.4204 -15.3926 -15.2214 -15.2126 -15.2006 -15.1991
   -15.1685 -14.9653 -14.5389 -14.1864 -14.1742 -14.1390 -14.0793 -13.8081
   -13.0727 -10.8338 -10.5221 -10.5094 -10.3420 -10.3114 -10.2417 -10.2378
   -10.1893  -9.9924  -9.8548  -9.5012  -9.4759  -9.4416  -9.4144  -9.2402
    -9.0208  -8.9093  -8.8873  -8.8183  -8.7662  -8.6814  -8.5843  -8.5780
    -8.4782  -7.1296  -5.8967  -4.5179  -4.4827  -4.2473  -4.2281  -4.1747
    -4.1332  -4.0544  -4.0381  -3.9376  -3.8841  -3.8571  -3.8342  -3.8182
    -3.7897  -3.7537  -3.5849  -3.5170  -3.4440  -3.4120  -3.3804  -3.3560
    -3.2376  -3.2178  -3.1398  -3.1108  -3.0789  -3.0645  -2.8428  -2.8395
    -2.7491  -1.8608  -1.4716  -1.0968   2.1289   2.1368   2.1864   2.2056
     2.2684   2.3364   2.3752   2.4054   2.5082   2.5777   2.6317   2.6634
     2.7165   2.7353   2.7833   2.7934

     the spin up/dw Fermi energies are    -1.2941   -1.2941 ev

!    total energy              =    -775.37614510 Ry
     total all-electron energy =     -3194.786950 Ry
     estimated scf accuracy    <       0.00000022 Ry
     smearing contrib. (-TS)   =      -0.00000000 Ry
     internal energy E=F+TS    =    -775.37614510 Ry

     The total energy is F=E-TS. E is the sum of the following terms:
     one-electron contribution =    -702.52043859 Ry
     hartree contribution      =     393.92553465 Ry
     xc contribution           =    -188.51297956 Ry
     ewald contribution        =     -21.99592837 Ry
     one-center paw contrib.   =    -256.27233324 Ry

     total magnetization       =     0.00 Bohr mag/cell
     absolute magnetization    =     0.00 Bohr mag/cell

     convergence has been achieved in  14 iterations

     Forces acting on atoms (cartesian axes, Ry/au):

     atom    1 type  1   force =     0.13879894    0.17692461   -0.03993337
     atom    2 type  1   force =     0.17826170    0.16685779    0.16129652
     atom    3 type  1   force =    -0.02964059   -0.01835675    0.06944689
     atom    4 type  1   force =     0.07464723   -0.04204629   -0.08317097
     atom    5 type  1   force =    -0.05165325    0.08453048   -0.09154955
     atom    6 type  1   force =    -0.00414380   -0.00536785   -0.00488397
     atom    7 type  1   force =    -0.19470211   -0.17946370   -0.22550163
     atom    8 type  1   force =     0.06564041    0.06571410   -0.05439095
     atom    9 type  1   force =     0.06355373   -0.06041403    0.06297279
     atom   10 type  1   force =    -0.06025877    0.06159013    0.06142581
     atom   11 type  1   force =    -0.00428836   -0.00504953    0.00067942
     atom   12 type  1   force =     0.07451802    0.07349016   -0.07862731
     atom   13 type  1   force =    -0.05688575   -0.05682351   -0.05764697
     atom   14 type  1   force =    -0.05846686    0.06054631    0.05846379
     atom   15 type  1   force =     0.06020486   -0.05859730    0.05866603
     atom   16 type  1   force =    -0.00443596    0.00192978   -0.00282692
     atom   17 type  1   force =     0.08776614   -0.07738229    0.08444338
     atom   18 type  1   force =    -0.05937551    0.05904378    0.05941618
     atom   19 type  1   force =    -0.05815762   -0.05834851   -0.05874401
     atom   20 type  1   force =     0.06023964    0.05817973   -0.05876266
     atom   21 type  1   force =    -0.00259759   -0.00286322    0.00201967
     atom   22 type  1   force =     0.05995061   -0.05876131   -0.05983612
     atom   23 type  1   force =    -0.05900579    0.06018551   -0.06000049
     atom   24 type  1   force =     0.05887539    0.05887963    0.05766758
     atom   25 type  1   force =    -0.05919327   -0.05918182    0.06001051
     atom   26 type  1   force =     0.00200942   -0.00438285   -0.00248477
     atom   27 type  1   force =    -0.06680897    0.07450112    0.07007914
     atom   28 type  1   force =     0.05912738   -0.05937111    0.05953894
     atom   29 type  1   force =     0.05807246    0.06036310   -0.05853528
     atom   30 type  1   force =    -0.05801702   -0.05782948   -0.05818212
     atom   31 type  1   force =     0.00252857   -0.00198277   -0.00201469
     atom   32 type  1   force =     0.05798519    0.05959736    0.05963164
     atom   33 type  1   force =    -0.06046883   -0.05965715    0.06045291
     atom   34 type  1   force =     0.06029773   -0.05991156   -0.06060668
     atom   35 type  1   force =    -0.06026730    0.06023564   -0.05952688
     atom   36 type  1   force =    -0.00200106    0.00312273   -0.00213631
     atom   37 type  1   force =    -0.06097973    0.06139866   -0.06177724
     atom   38 type  1   force =     0.06023689    0.05825311    0.06025925
     atom   39 type  1   force =     0.06054985   -0.06044875   -0.05974003
     atom   40 type  1   force =    -0.05968908   -0.06042727    0.06057448
     atom   41 type  2   force =    -0.21222691   -0.25867669    0.13383400

     Total force =     0.858358     Total SCF correction =     0.000788

     BFGS Geometry Optimization
     Energy error            =      0.0E+00 Ry
     Gradient error          =      2.6E-01 Ry/Bohr

     number of scf cycles    =   1
     number of bfgs steps    =   0

     energy             new  =    -775.3761450972 Ry

     new trust radius        =       0.3603684622 bohr
     new conv_thr            =       0.0000010000 Ry


ATOMIC_POSITIONS (angstrom)
C             1.1644492348        1.1846244713        1.0698681724
C             0.2943320281        0.2882973423        0.2853544442
C             1.9663148771        1.9722860279        0.2367497106
C             0.2395016107        1.9597500611        1.9379878197
C             1.9546662754        0.2447316058        1.9335540669
C             8.5128071967        8.5121594554        8.5124155140
C             9.3019680828        9.3100319000        9.2856696739
C             7.6587354067        7.6587744020        9.3772175493
C             7.6576311854        9.3740302725        7.6573237642
C             9.3741124309        7.6565920911        7.6565051401
C             3.5637306980        3.5633279035        8.5153595336
C             2.7144332384        2.7138893198        9.3643922181
C             4.4258973559        4.4259302957        9.3744945363
C             4.4260606715        2.7070397278        7.6549377056
C             2.7068590405        4.4259916438        7.6550447264
C             3.5636525915        8.5160211977        3.5645040584
C             2.7214438423        9.3650510561        2.7196855133
C             4.4255798309        7.6552446225        2.7064416887
C             4.4252243107        9.3741232978        4.4249140091
C             2.7068774438        7.6547873870        4.4259041397
C             6.0386254127        6.0384848467        1.0920687636
C             5.1807244959        6.8999048555        1.9503360865
C             6.8997754827        5.1808488019        1.9502491072
C             5.1801555129        5.1801577558        0.2305163665
C             6.8996762722        6.8996823308        0.2317561940
C             8.5160633367        3.5636806966        3.5646851153
C             9.3706462139        2.7144242968        2.7120842817
C             7.6552888610        4.4255821612        2.7065066526
C             7.6547306200        2.7069427758        4.4260244639
C             9.3742987133        4.4253979554        4.4252113497
C             1.0923380621        6.0389507615        6.0389338731
C             0.2306844424        5.1805375638        5.1805557050
C             1.9500012756        6.8994307979        5.1809903029
C             0.2319081838        6.8992961685        6.8989283284
C             1.9501079176        5.1808753305        6.8994997294
C             6.0389410869        1.0926524758        6.0388695129
C             6.8987309163        0.2324907714        6.8983088918
C             5.1808759876        0.2308262197        5.1808878201
C             5.1810416014        1.9500118971        6.8993869363
C             6.8994138967        1.9500232637        5.1810546324
O            -0.0563056440       -0.2948858077        1.5698219020



     Writing config-only to output data dir ./pwscf.save/
     NEW-OLD atomic charge density approx. for the potential

     Check: negative core charge=   -0.000004

     negative rho (up, down):  1.316E-07 1.727E-08
     Generating pointlists ...

     total cpu time spent up to now is       23.4 secs

     Self-consistent Calculation

     iteration #  1     ecut=    50.00 Ry     beta= 0.30
     Davidson diagonalization with overlap
     c_bands:  1 eigenvalues not converged
     c_bands:  1 eigenvalues not converged
     ethr =  1.00E-06,  avg # of iterations = 20.0

     negative rho (up, down):  3.212E-08 0.000E+00

     total cpu time spent up to now is       27.6 secs

     total energy              =    -775.03167870 Ry
     estimated scf accuracy    <       0.62780687 Ry

     total magnetization       =    -0.00 Bohr mag/cell
     absolute magnetization    =     0.00 Bohr mag/cell

     iteration #  2     ecut=    50.00 Ry     beta= 0.30
     Davidson diagonalization with overlap
     ethr =  3.78E-04,  avg # of iterations =  3.0

     negative rho (up, down):  1.443E-08 0.000E+00

     total cpu time spent up to now is       29.1 secs

     total energy              =    -775.05892642 Ry
     estimated scf accuracy    <       0.14131277 Ry

     total magnetization       =    -0.00 Bohr mag/cell
     absolute magnetization    =     0.00 Bohr mag/cell

     iteration #  3     ecut=    50.00 Ry     beta= 0.30
     Davidson diagonalization with overlap
     ethr =  8.51E-05,  avg # of iterations =  2.0

     total cpu time spent up to now is       30.4 secs

     total energy              =    -775.05475775 Ry
     estimated scf accuracy    <       0.11878103 Ry

     total magnetization       =    -0.00 Bohr mag/cell
     absolute magnetization    =     0.00 Bohr mag/cell

     iteration #  4     ecut=    50.00 Ry     beta= 0.30
     Davidson diagonalization with overlap
     ethr =  7.16E-05,  avg # of iterations =  2.0

     total cpu time spent up to now is       31.7 secs

     total energy              =    -775.06402882 Ry
     estimated scf accuracy    <       0.04839816 Ry

     total magnetization       =    -0.00 Bohr mag/cell
     absolute magnetization    =     0.00 Bohr mag/cell

     iteration #  5     ecut=    50.00 Ry     beta= 0.30
     Davidson diagonalization with overlap
     ethr =  2.92E-05,  avg # of iterations =  2.0

     total cpu time spent up to now is       33.0 secs

     total energy              =    -775.06641346 Ry
     estimated scf accuracy    <       0.00466960 Ry

     total magnetization       =     0.00 Bohr mag/cell
     absolute magnetization    =     0.00 Bohr mag/cell

     iteration #  6     ecut=    50.00 Ry     beta= 0.30
     Davidson diagonalization with overlap
     ethr =  2.81E-06,  avg # of iterations =  8.0

     total cpu time spent up to now is       34.7 secs

     total energy              =    -775.06637752 Ry
     estimated scf accuracy    <       0.00190656 Ry

     total magnetization       =    -0.00 Bohr mag/cell
     absolute magnetization    =     0.00 Bohr mag/cell

     iteration #  7     ecut=    50.00 Ry     beta= 0.30
     Davidson diagonalization with overlap
     ethr =  1.15E-06,  avg # of iterations =  2.0

     total cpu time spent up to now is       36.0 secs

     total energy              =    -775.06652901 Ry
     estimated scf accuracy    <       0.00040664 Ry

     total magnetization       =    -0.00 Bohr mag/cell
     absolute magnetization    =     0.00 Bohr mag/cell

     iteration #  8     ecut=    50.00 Ry     beta= 0.30
     Davidson diagonalization with overlap
     ethr =  2.45E-07,  avg # of iterations =  3.0

     total cpu time spent up to now is       37.4 secs

     total energy              =    -775.06655192 Ry
     estimated scf accuracy    <       0.00006777 Ry

     total magnetization       =     0.00 Bohr mag/cell
     absolute magnetization    =     0.00 Bohr mag/cell

     iteration #  9     ecut=    50.00 Ry     beta= 0.30
     Davidson diagonalization with overlap
     ethr =  4.08E-08,  avg # of iterations =  4.0

     total cpu time spent up to now is       38.9 secs

     total energy              =    -775.06656232 Ry
     estimated scf accuracy    <       0.00001637 Ry

     total magnetization       =    -0.00 Bohr mag/cell
     absolute magnetization    =     0.00 Bohr mag/cell

     iteration # 10     ecut=    50.00 Ry     beta= 0.30
     Davidson diagonalization with overlap
     ethr =  9.86E-09,  avg # of iterations =  4.0

     total cpu time spent up to now is       40.4 secs

     total energy              =    -775.06656404 Ry
     estimated scf accuracy    <       0.00000246 Ry

     total magnetization       =     0.00 Bohr mag/cell
     absolute magnetization    =     0.00 Bohr mag/cell

     iteration # 11     ecut=    50.00 Ry     beta= 0.30
     Davidson diagonalization with overlap
     ethr =  1.48E-09,  avg # of iterations =  4.0

     Magnetic moment per site  (integrated on atomic sphere of radius R)
     atom   1 (R=0.050)  charge=  1.0840  magn=  0.0000
     atom   2 (R=0.050)  charge=  1.0090  magn= -0.0000
     atom   3 (R=0.050)  charge=  1.0908  magn= -0.0000
     atom   4 (R=0.050)  charge=  1.0540  magn=  0.0000
     atom   5 (R=0.050)  charge=  1.0398  magn= -0.0000
     atom   6 (R=0.050)  charge=  1.0895  magn= -0.0000
     atom   7 (R=0.050)  charge=  1.0328  magn=  0.0001
     atom   8 (R=0.050)  charge=  1.0620  magn= -0.0000
     atom   9 (R=0.050)  charge=  1.0630  magn= -0.0000
     atom  10 (R=0.050)  charge=  1.0646  magn=  0.0000
     atom  11 (R=0.050)  charge=  1.0580  magn= -0.0000
     atom  12 (R=0.050)  charge=  1.0708  magn=  0.0000
     atom  13 (R=0.050)  charge=  1.0635  magn=  0.0000
     atom  14 (R=0.050)  charge=  1.0626  magn= -0.0000
     atom  15 (R=0.050)  charge=  1.0626  magn=  0.0000
     atom  16 (R=0.050)  charge=  1.0589  magn= -0.0000
     atom  17 (R=0.050)  charge=  1.0552  magn=  0.0000
     atom  18 (R=0.050)  charge=  1.0622  magn=  0.0000
     atom  19 (R=0.050)  charge=  1.0628  magn= -0.0000
     atom  20 (R=0.050)  charge=  1.0625  magn=  0.0000
     atom  21 (R=0.050)  charge=  1.0545  magn= -0.0000
     atom  22 (R=0.050)  charge=  1.0637  magn= -0.0000
     atom  23 (R=0.050)  charge=  1.0637  magn= -0.0000
     atom  24 (R=0.050)  charge=  1.0642  magn= -0.0000
     atom  25 (R=0.050)  charge=  1.0597  magn=  0.0000
     atom  26 (R=0.050)  charge=  1.0565  magn=  0.0000
     atom  27 (R=0.050)  charge=  1.0604  magn= -0.0000
     atom  28 (R=0.050)  charge=  1.0619  magn=  0.0000
     atom  29 (R=0.050)  charge=  1.0623  magn=  0.0000
     atom  30 (R=0.050)  charge=  1.0632  magn=  0.0000
     atom  31 (R=0.050)  charge=  1.0551  magn=  0.0000
     atom  32 (R=0.050)  charge=  1.0632  magn= -0.0000
     atom  33 (R=0.050)  charge=  1.0637  magn= -0.0000
     atom  34 (R=0.050)  charge=  1.0615  magn=  0.0000
     atom  35 (R=0.050)  charge=  1.0636  magn= -0.0000
     atom  36 (R=0.050)  charge=  1.0554  magn= -0.0000
     atom  37 (R=0.050)  charge=  1.0602  magn= -0.0000
     atom  38 (R=0.050)  charge=  1.0628  magn=  0.0000
     atom  39 (R=0.050)  charge=  1.0637  magn=  0.0000
     atom  40 (R=0.050)  charge=  1.0640  magn= -0.0000
     atom  41 (R=0.056)  charge=  3.4714  magn= -0.0001

     total cpu time spent up to now is       41.9 secs

     End of self-consistent calculation

 ------ SPIN UP ------------


          k = 0.0000 0.0000 0.0000 ( 19564 PWs)   bands (ev):

   -21.6723 -19.2812 -18.7231 -18.5247 -18.5168 -18.5040 -18.4807 -18.2347
   -17.7029 -14.9266 -14.8776 -14.8056 -14.7971 -14.7873 -14.7864 -14.7776
   -14.6907 -14.5599 -13.9360 -13.9134 -13.8932 -13.8852 -13.8372 -13.3986
   -12.4868 -11.5577 -11.2962 -11.2788 -11.1933 -11.1472 -11.1007 -11.0441
   -11.0412 -11.0191 -10.1381  -9.9478  -9.9298  -9.9180  -9.8842  -9.8491
    -9.3962  -9.2891  -9.2636  -9.1769  -9.1652  -9.1587  -9.0274  -9.0051
    -8.9785  -6.2169  -5.2411  -4.2859  -4.2422  -3.9631  -3.9627  -3.9222
    -3.8870  -3.8126  -3.7540  -3.7153  -3.5792  -3.5682  -3.5592  -3.5550
    -3.5495  -3.5090  -3.2824  -3.2095  -3.0832  -3.0680  -3.0419  -3.0239
    -2.9383  -2.8661  -2.7688  -2.7017  -2.6862  -2.6763  -2.4174  -2.2907
    -2.2438  -2.0977  -1.5070  -0.8472   0.8508   1.2760   1.3433   1.3574
     1.4232   1.4742   1.4828   1.6282   1.7401   1.8165   1.9580   2.0059
     2.0197   2.1524   2.1580   2.3380

 ------ SPIN DOWN ----------


          k = 0.0000 0.0000 0.0000 ( 19564 PWs)   bands (ev):

   -21.6725 -19.2812 -18.7231 -18.5247 -18.5168 -18.5040 -18.4807 -18.2347
   -17.7030 -14.9266 -14.8776 -14.8056 -14.7971 -14.7873 -14.7864 -14.7776
   -14.6907 -14.5599 -13.9360 -13.9134 -13.8931 -13.8852 -13.8372 -13.3986
   -12.4868 -11.5577 -11.2962 -11.2788 -11.1933 -11.1472 -11.1007 -11.0441
   -11.0412 -11.0191 -10.1382  -9.9477  -9.9298  -9.9180  -9.8842  -9.8491
    -9.3962  -9.2891  -9.2636  -9.1769  -9.1652  -9.1587  -9.0274  -9.0051
    -8.9785  -6.2170  -5.2412  -4.2859  -4.2422  -3.9631  -3.9627  -3.9222
    -3.8869  -3.8126  -3.7540  -3.7155  -3.5792  -3.5682  -3.5592  -3.5550
    -3.5495  -3.5090  -3.2825  -3.2096  -3.0832  -3.0680  -3.0419  -3.0239
    -2.9384  -2.8661  -2.7688  -2.7017  -2.6862  -2.6763  -2.4174  -2.2908
    -2.2439  -2.0977  -1.5071  -0.8470   0.8508   1.2760   1.3433   1.3574
     1.4232   1.4742   1.4828   1.6282   1.7401   1.8165   1.9581   2.0059
     2.0197   2.1524   2.1580   2.3381

     the spin up/dw Fermi energies are    -1.4042   -1.4042 ev

!    total energy              =    -775.06656439 Ry
     total all-electron energy =     -3194.477370 Ry
     estimated scf accuracy    <       0.00000075 Ry
     smearing contrib. (-TS)   =      -0.00000000 Ry
     internal energy E=F+TS    =    -775.06656439 Ry

     The total energy is F=E-TS. E is the sum of the following terms:
     one-electron contribution =    -692.07419913 Ry
     hartree contribution      =     387.52719612 Ry
     xc contribution           =    -186.81684809 Ry
     ewald contribution        =     -27.54318848 Ry
     one-center paw contrib.   =    -256.15952481 Ry

     total magnetization       =    -0.00 Bohr mag/cell
     absolute magnetization    =     0.00 Bohr mag/cell

     convergence has been achieved in  11 iterations

     Forces acting on atoms (cartesian axes, Ry/au):

     atom    1 type  1   force =     0.05379735    0.06565170    0.00085183
     atom    2 type  1   force =    -0.27135656   -0.30920032    0.01152409
     atom    3 type  1   force =     0.23871021    0.24404428   -0.20971999
     atom    4 type  1   force =    -0.17078818    0.18990921    0.17949279
     atom    5 type  1   force =     0.17755398   -0.18385750    0.18921676
     atom    6 type  1   force =    -0.08874048   -0.09282159   -0.08925176
     atom    7 type  1   force =     0.29226158    0.30501799    0.28141096
     atom    8 type  1   force =    -0.16997911   -0.17005875    0.17136986
     atom    9 type  1   force =    -0.17458811    0.16453839   -0.17721383
     atom   10 type  1   force =     0.16266823   -0.17770835   -0.17865383
     atom   11 type  1   force =     0.00877186    0.00865937   -0.00907939
     atom   12 type  1   force =    -0.16499931   -0.16315890    0.17153149
     atom   13 type  1   force =     0.16052838    0.16057503    0.16014529
     atom   14 type  1   force =     0.16584443   -0.16545801   -0.16633825
     atom   15 type  1   force =    -0.16507705    0.16515004   -0.16561841
     atom   16 type  1   force =     0.01223598   -0.01109957    0.01199810
     atom   17 type  1   force =    -0.18850343    0.20900074   -0.20259010
     atom   18 type  1   force =     0.16495424   -0.16549413   -0.16369550
     atom   19 type  1   force =     0.16316435    0.16138138    0.16155854
     atom   20 type  1   force =    -0.16443582   -0.16649332    0.16493911
     atom   21 type  1   force =    -0.00011053   -0.00005699    0.00020338
     atom   22 type  1   force =    -0.16467773    0.16458722    0.16434781
     atom   23 type  1   force =     0.16477805   -0.16478175    0.16471837
     atom   24 type  1   force =    -0.16079382   -0.16082264   -0.16160791
     atom   25 type  1   force =     0.16542510    0.16536338   -0.16203737
     atom   26 type  1   force =    -0.00526199    0.00478968    0.00582140
     atom   27 type  1   force =     0.18831748   -0.17336936   -0.18688413
     atom   28 type  1   force =    -0.16476073    0.16437443   -0.16393804
     atom   29 type  1   force =    -0.16585131   -0.16403744    0.16494413
     atom   30 type  1   force =     0.16154766    0.16189970    0.16110131
     atom   31 type  1   force =    -0.00026286    0.00121922    0.00028269
     atom   32 type  1   force =    -0.16211478   -0.16141282   -0.16121360
     atom   33 type  1   force =     0.16466463    0.16393806   -0.16435987
     atom   34 type  1   force =    -0.16149364    0.16266485    0.16186338
     atom   35 type  1   force =     0.16593340   -0.16533736    0.16479587
     atom   36 type  1   force =     0.00064868    0.00120917   -0.00056472
     atom   37 type  1   force =     0.16386266   -0.16222872    0.16242691
     atom   38 type  1   force =    -0.16085328   -0.16251222   -0.16074328
     atom   39 type  1   force =    -0.16536821    0.16649285    0.16502396
     atom   40 type  1   force =     0.16401295    0.16521114   -0.16398307
     atom   41 type  2   force =    -0.06966430   -0.07576811   -0.13207498

     Total force =     1.761817     Total SCF correction =     0.001371
     Energy error            =      3.1E-01 Ry
     Gradient error          =      3.1E-01 Ry/Bohr

     number of scf cycles    =   2
     number of bfgs steps    =   1

     energy             old  =    -775.3761450972 Ry
     energy             new  =    -775.0665643891 Ry

     CASE: energy            _new > energy            _old

     new trust radius        =       0.1268740799 bohr
     new conv_thr            =       0.0000010000 Ry


ATOMIC_POSITIONS (angstrom)
C             1.1168591000        1.1239621482        1.0835601670
C             0.2332112561        0.2310866384        0.2300505391
C             1.9764777756        1.9785800246        0.2129383845
C             0.2139072395        1.9741665162        1.9665047348
C             1.9723766797        0.2157485516        1.9649437539
C             8.5142279849        8.5139999361        8.5140900861
C             9.3687257944        9.3715648036        9.3629876518
C             7.6362292132        7.6362429422        9.3958666300
C             7.6358404526        9.3947444930        7.6357322196
C             9.3947734183        7.6354746211        7.6354440085
C             3.5652010522        3.5650592413        8.5151265802
C             2.6888831678        2.6886916717        9.3913512457
C             4.4454018326        4.4454134297        9.3942600129
C             4.4461072631        2.6862801519        7.6348921655
C             2.6862165377        4.4460829607        7.6349298441
C             3.5651735534        8.5153595307        3.5654733274
C             2.6913513747        9.3915832013        2.6907323239
C             4.4459379747        7.6350002210        2.6860696017
C             4.4451648752        9.3941293118        4.4450556280
C             2.6862230169        7.6348392432        4.4460521533
C             6.0395160523        6.0394665635        1.0913762771
C             5.1601691689        6.9200524054        1.9708521602
C             6.9200068574        5.1602129330        1.9708215376
C             5.1599688484        5.1599696381        0.2107438256
C             6.9199719286        6.9199740616        0.2111803288
C             8.5153743665        3.5651834483        3.5655370716
C             9.3935530754        2.6888800198        2.6880561761
C             7.6350157960        4.4459387951        2.6860924734
C             7.6348192574        2.6862460182        4.4460945156
C             9.3941910699        4.4452260099        4.4451603120
C             1.0914710884        6.0396305971        6.0396246512
C             0.2108029997        5.1601033562        5.1601097431
C             1.9707342841        6.9198855050        5.1602627510
C             0.2112338395        6.9198381063        6.9197086017
C             1.9707718293        5.1602222729        6.9199097736
C             6.0396271910        1.0915817833        6.0396019920
C             6.9196390993        0.2114389497        6.9194905182
C             5.1602225042        0.2108529149        5.1602266701
C             5.1602808115        1.9707380236        6.9198700628
C             6.9198795546        1.9707420254        5.1602853993
O             0.0164608151       -0.2061930655        1.5239341010



     Writing config-only to output data dir ./pwscf.save/
     NEW-OLD atomic charge density approx. for the potential

     Check: negative core charge=   -0.000004
     Generating pointlists ...

     total cpu time spent up to now is       44.1 secs

     Self-consistent Calculation

     iteration #  1     ecut=    50.00 Ry     beta= 0.30
     Davidson diagonalization with overlap
     c_bands:  1 eigenvalues not converged
     c_bands:  1 eigenvalues not converged
     ethr =  1.00E-06,  avg # of iterations = 20.0

     total cpu time spent up to now is       48.0 secs

     total energy              =    -775.47318581 Ry
     estimated scf accuracy    <       0.25095848 Ry

     total magnetization       =     0.00 Bohr mag/cell
     absolute magnetization    =     0.00 Bohr mag/cell

     iteration #  2     ecut=    50.00 Ry     beta= 0.30
     Davidson diagonalization with overlap
     ethr =  1.51E-04,  avg # of iterations =  2.0

     total cpu time spent up to now is       49.3 secs

     total energy              =    -775.46884108 Ry
     estimated scf accuracy    <       0.14145652 Ry

     total magnetization       =    -0.00 Bohr mag/cell
     absolute magnetization    =     0.00 Bohr mag/cell

     iteration #  3     ecut=    50.00 Ry     beta= 0.30
     Davidson diagonalization with overlap
     ethr =  8.52E-05,  avg # of iterations =  2.0

     total cpu time spent up to now is       50.7 secs

     total energy              =    -775.48574654 Ry
     estimated scf accuracy    <       0.08244907 Ry

     total magnetization       =     0.00 Bohr mag/cell
     absolute magnetization    =     0.00 Bohr mag/cell

     iteration #  4     ecut=    50.00 Ry     beta= 0.30
     Davidson diagonalization with overlap
     ethr =  4.97E-05,  avg # of iterations =  2.0

     total cpu time spent up to now is       52.0 secs

     total energy              =    -775.49003236 Ry
     estimated scf accuracy    <       0.00656588 Ry

     total magnetization       =    -0.00 Bohr mag/cell
     absolute magnetization    =     0.00 Bohr mag/cell

     iteration #  5     ecut=    50.00 Ry     beta= 0.30
     Davidson diagonalization with overlap
     ethr =  3.96E-06,  avg # of iterations = 15.0

     total cpu time spent up to now is       53.8 secs

     total energy              =    -775.49081002 Ry
     estimated scf accuracy    <       0.00230120 Ry

     total magnetization       =    -0.00 Bohr mag/cell
     absolute magnetization    =     0.00 Bohr mag/cell

     iteration #  6     ecut=    50.00 Ry     beta= 0.30
     Davidson diagonalization with overlap
     ethr =  1.39E-06,  avg # of iterations =  2.0

     total cpu time spent up to now is       55.1 secs

     total energy              =    -775.49087517 Ry
     estimated scf accuracy    <       0.00052043 Ry

     total magnetization       =    -0.00 Bohr mag/cell
     absolute magnetization    =     0.00 Bohr mag/cell

     iteration #  7     ecut=    50.00 Ry     beta= 0.30
     Davidson diagonalization with overlap
     ethr =  3.14E-07,  avg # of iterations =  4.0

     total cpu time spent up to now is       56.5 secs

     total energy              =    -775.49095110 Ry
     estimated scf accuracy    <       0.00008454 Ry

     total magnetization       =    -0.00 Bohr mag/cell
     absolute magnetization    =     0.00 Bohr mag/cell

     iteration #  8     ecut=    50.00 Ry     beta= 0.30
     Davidson diagonalization with overlap
     ethr =  5.09E-08,  avg # of iterations =  4.0

     total cpu time spent up to now is       57.9 secs

     total energy              =    -775.49096043 Ry
     estimated scf accuracy    <       0.00001186 Ry

     total magnetization       =     0.00 Bohr mag/cell
     absolute magnetization    =     0.00 Bohr mag/cell

     iteration #  9     ecut=    50.00 Ry     beta= 0.30
     Davidson diagonalization with overlap
     ethr =  7.15E-09,  avg # of iterations =  4.0

     total cpu time spent up to now is       59.4 secs

     total energy              =    -775.49096283 Ry
     estimated scf accuracy    <       0.00000195 Ry

     total magnetization       =    -0.00 Bohr mag/cell
     absolute magnetization    =     0.00 Bohr mag/cell

     iteration # 10     ecut=    50.00 Ry     beta= 0.30
     Davidson diagonalization with overlap
     ethr =  1.17E-09,  avg # of iterations =  2.0

     Magnetic moment per site  (integrated on atomic sphere of radius R)
     atom   1 (R=0.050)  charge=  1.0343  magn= -0.0000
     atom   2 (R=0.050)  charge=  1.0831  magn=  0.0000
     atom   3 (R=0.050)  charge=  1.1055  magn=  0.0000
     atom   4 (R=0.050)  charge=  1.0881  magn=  0.0000
     atom   5 (R=0.050)  charge=  1.0810  magn= -0.0000
     atom   6 (R=0.050)  charge=  1.0349  magn=  0.0000
     atom   7 (R=0.050)  charge=  1.0643  magn= -0.0001
     atom   8 (R=0.050)  charge=  1.0934  magn= -0.0000
     atom   9 (R=0.050)  charge=  1.0942  magn= -0.0000
     atom  10 (R=0.050)  charge=  1.0949  magn=  0.0000
     atom  11 (R=0.050)  charge=  1.0283  magn= -0.0000
     atom  12 (R=0.050)  charge=  1.0996  magn= -0.0000
     atom  13 (R=0.050)  charge=  1.0914  magn= -0.0000
     atom  14 (R=0.050)  charge=  1.0929  magn= -0.0000
     atom  15 (R=0.050)  charge=  1.0930  magn=  0.0000
     atom  16 (R=0.050)  charge=  1.0281  magn= -0.0000
     atom  17 (R=0.050)  charge=  1.0905  magn=  0.0001
     atom  18 (R=0.050)  charge=  1.0931  magn=  0.0000
     atom  19 (R=0.050)  charge=  1.0912  magn=  0.0000
     atom  20 (R=0.050)  charge=  1.0932  magn=  0.0000
     atom  21 (R=0.050)  charge=  1.0269  magn= -0.0000
     atom  22 (R=0.050)  charge=  1.0930  magn= -0.0000
     atom  23 (R=0.050)  charge=  1.0932  magn= -0.0000
     atom  24 (R=0.050)  charge=  1.0941  magn= -0.0000
     atom  25 (R=0.050)  charge=  1.0901  magn= -0.0000
     atom  26 (R=0.050)  charge=  1.0275  magn=  0.0000
     atom  27 (R=0.050)  charge=  1.0932  magn= -0.0000
     atom  28 (R=0.050)  charge=  1.0929  magn= -0.0000
     atom  29 (R=0.050)  charge=  1.0931  magn= -0.0000
     atom  30 (R=0.050)  charge=  1.0913  magn= -0.0000
     atom  31 (R=0.050)  charge=  1.0271  magn= -0.0000
     atom  32 (R=0.050)  charge=  1.0934  magn= -0.0000
     atom  33 (R=0.050)  charge=  1.0931  magn=  0.0000
     atom  34 (R=0.050)  charge=  1.0910  magn=  0.0000
     atom  35 (R=0.050)  charge=  1.0935  magn= -0.0000
     atom  36 (R=0.050)  charge=  1.0272  magn=  0.0000
     atom  37 (R=0.050)  charge=  1.0904  magn= -0.0000
     atom  38 (R=0.050)  charge=  1.0931  magn=  0.0000
     atom  39 (R=0.050)  charge=  1.0936  magn= -0.0000
     atom  40 (R=0.050)  charge=  1.0934  magn= -0.0000
     atom  41 (R=0.056)  charge=  3.5253  magn=  0.0001

     total cpu time spent up to now is       60.7 secs

     End of self-consistent calculation

 ------ SPIN UP ------------


          k = 0.0000 0.0000 0.0000 ( 19564 PWs)   bands (ev):

   -22.7902 -18.5504 -18.2277 -18.0264 -18.0171 -17.9718 -17.9182 -17.6074
   -16.9325 -15.2447 -15.2124 -15.1905 -15.0656 -15.0590 -15.0435 -15.0428
   -14.9992 -14.8047 -14.3024 -14.0861 -14.0779 -14.0776 -14.0159 -13.7730
   -12.9342 -11.0607 -10.7702 -10.7624 -10.6182 -10.5915 -10.5282 -10.5220
   -10.4830 -10.3314  -9.9981  -9.6549  -9.6286  -9.6226  -9.5988  -9.4741
    -9.1698  -9.0418  -9.0225  -8.9577  -8.9167  -8.8597  -8.7466  -8.7361
    -8.6807  -6.9054  -5.6704  -4.4175  -4.3777  -4.1145  -4.1138  -4.0763
    -4.0336  -3.9514  -3.9208  -3.7937  -3.7523  -3.7474  -3.7268  -3.7256
    -3.6959  -3.6599  -3.4497  -3.3583  -3.3198  -3.2775  -3.2467  -3.2206
    -3.1086  -3.0537  -3.0017  -2.9772  -2.9451  -2.9391  -2.7012  -2.6424
    -2.5915  -1.9781  -1.7027  -1.0067   1.6771   1.8876   1.9065   1.9107
     1.9394   2.0329   2.0760   2.1264   2.2523   2.3166   2.3729   2.4286
     2.4904   2.5274   2.5498   2.7226

 ------ SPIN DOWN ----------


          k = 0.0000 0.0000 0.0000 ( 19564 PWs)   bands (ev):

   -22.7902 -18.5505 -18.2277 -18.0264 -18.0171 -17.9717 -17.9182 -17.6074
   -16.9325 -15.2447 -15.2125 -15.1905 -15.0656 -15.0590 -15.0435 -15.0428
   -14.9991 -14.8047 -14.3024 -14.0861 -14.0779 -14.0776 -14.0159 -13.7730
   -12.9342 -11.0607 -10.7701 -10.7624 -10.6182 -10.5915 -10.5282 -10.5220
   -10.4830 -10.3314  -9.9981  -9.6548  -9.6286  -9.6226  -9.5988  -9.4741
    -9.1698  -9.0418  -9.0225  -8.9577  -8.9167  -8.8597  -8.7466  -8.7361
    -8.6807  -6.9053  -5.6704  -4.4175  -4.3777  -4.1145  -4.1138  -4.0763
    -4.0335  -3.9514  -3.9208  -3.7937  -3.7523  -3.7474  -3.7268  -3.7256
    -3.6959  -3.6599  -3.4496  -3.3583  -3.3198  -3.2775  -3.2467  -3.2206
    -3.1085  -3.0537  -3.0017  -2.9772  -2.9450  -2.9392  -2.7012  -2.6424
    -2.5915  -1.9782  -1.7026  -1.0070   1.6771   1.8876   1.9065   1.9107
     1.9394   2.0329   2.0760   2.1264   2.2523   2.3166   2.3729   2.4287
     2.4904   2.5274   2.5498   2.7226

     the spin up/dw Fermi energies are    -1.2544   -1.2544 ev

!    total energy              =    -775.49096305 Ry
     total all-electron energy =     -3194.901768 Ry
     estimated scf accuracy    <       0.00000030 Ry
     smearing contrib. (-TS)   =      -0.00000000 Ry
     internal energy E=F+TS    =    -775.49096305 Ry

     The total energy is F=E-TS. E is the sum of the following terms:
     one-electron contribution =    -697.50205074 Ry
     hartree contribution      =     390.94856530 Ry
     xc contribution           =    -187.78626661 Ry
     ewald contribution        =     -24.93710361 Ry
     one-center paw contrib.   =    -256.21410739 Ry

     total magnetization       =    -0.00 Bohr mag/cell
     absolute magnetization    =     0.00 Bohr mag/cell

     convergence has been achieved in  10 iterations

     Forces acting on atoms (cartesian axes, Ry/au):

     atom    1 type  1   force =     0.12649629    0.16318473   -0.06880873
     atom    2 type  1   force =    -0.03329336   -0.05803270    0.08500459
     atom    3 type  1   force =     0.07265985    0.08106249   -0.02843197
     atom    4 type  1   force =    -0.03038691    0.05392367    0.02636149
     atom    5 type  1   force =     0.04367861   -0.03707572    0.02968746
     atom    6 type  1   force =    -0.02126818   -0.02237715   -0.01962114
     atom    7 type  1   force =     0.04046881    0.05198141    0.02644716
     atom    8 type  1   force =    -0.03246684   -0.03241340    0.03837511
     atom    9 type  1   force =    -0.03490807    0.03338707   -0.03637204
     atom   10 type  1   force =     0.03256835   -0.03618158   -0.03683238
     atom   11 type  1   force =    -0.00081820   -0.00127134   -0.00211880
     atom   12 type  1   force =    -0.02405841   -0.02436016    0.02285897
     atom   13 type  1   force =     0.03280190    0.03286691    0.03212151
     atom   14 type  1   force =     0.03425747   -0.03282416   -0.03461666
     atom   15 type  1   force =    -0.03287199    0.03396641   -0.03424154
     atom   16 type  1   force =     0.00152806   -0.00172084    0.00167755
     atom   17 type  1   force =    -0.03366454    0.04654810   -0.03964373
     atom   18 type  1   force =     0.03322738   -0.03372613   -0.03302784
     atom   19 type  1   force =     0.03331439    0.03284890    0.03249595
     atom   20 type  1   force =    -0.03308096   -0.03435169    0.03344871
     atom   21 type  1   force =    -0.00134765   -0.00169840    0.00110066
     atom   22 type  1   force =    -0.03297593    0.03362907    0.03300425
     atom   23 type  1   force =     0.03350784   -0.03284717    0.03305364
     atom   24 type  1   force =    -0.03151148   -0.03147637   -0.03238316
     atom   25 type  1   force =     0.03414805    0.03421207   -0.03288903
     atom   26 type  1   force =     0.00000468   -0.00122786   -0.00007953
     atom   27 type  1   force =     0.04081126   -0.03172199   -0.03819660
     atom   28 type  1   force =    -0.03355833    0.03318528   -0.03307074
     atom   29 type  1   force =    -0.03449481   -0.03265027    0.03384426
     atom   30 type  1   force =     0.03279276    0.03298596    0.03255671
     atom   31 type  1   force =     0.00144032   -0.00108142   -0.00094056
     atom   32 type  1   force =    -0.03280964   -0.03157435   -0.03154578
     atom   33 type  1   force =     0.03268674    0.03302355   -0.03268144
     atom   34 type  1   force =    -0.03235064    0.03317267    0.03240426
     atom   35 type  1   force =     0.03317377   -0.03283369    0.03310683
     atom   36 type  1   force =    -0.00094770    0.00243152   -0.00123263
     atom   37 type  1   force =     0.03320704   -0.03242054    0.03227444
     atom   38 type  1   force =    -0.03135664   -0.03303557   -0.03132750
     atom   39 type  1   force =    -0.03272202    0.03322385    0.03308466
     atom   40 type  1   force =     0.03286113    0.03280500   -0.03237230
     atom   41 type  2   force =    -0.18474242   -0.22153615    0.00752592

     Total force =     0.510152     Total SCF correction =     0.000749
     Energy error            =      1.1E-01 Ry
     Gradient error          =      2.2E-01 Ry/Bohr

     number of scf cycles    =   3
     number of bfgs steps    =   1

     energy             old  =    -775.3761450972 Ry
     energy             new  =    -775.4909630533 Ry

     CASE: energy            _new < energy            _old

     new trust radius        =       0.3806222397 bohr
     new conv_thr            =       0.0000010000 Ry


ATOMIC_POSITIONS (angstrom)
C             1.2029099080        1.2345860720        1.0431728469
C             0.2493380575        0.2332258712        0.3001560591
C             2.0061623546        2.0143532059        0.2117657086
C             0.2127307055        1.9925773032        1.9642015521
C             1.9841131912        0.2131309337        1.9627317731
C             8.5032247694        8.5022410245        8.5037474299
C             9.3530910061        9.3642320840        9.3350318382
C             7.6324238316        7.6324766327        9.4045516641
C             7.6304812587        9.3999370731        7.6295622470
C             9.3995992547        7.6291468859        7.6287728058
C             3.5640323825        3.5635346670        8.5142275824
C             2.6907348051        2.6902122572        9.3881794349
C             4.4509491903        4.4510033693        9.3993418785
C             4.4520710461        2.6813828757        7.6287546317
C             2.6812345618        4.4518828513        7.6290096969
C             3.5651095691        8.5148781398        3.5657718905
C             2.6909626814        9.4000586558        2.6868607332
C             4.4512410327        7.6293967904        2.6808701004
C             4.4507297437        9.3994352719        4.4501200046
C             2.6811465532        7.6287781942        4.4515725661
C             6.0383973140        6.0381307453        1.0922715917
C             5.1550911762        6.9256600300        1.9759644761
C             6.9255118940        5.1552394313        1.9759279959
C             5.1554028841        5.1554213692        0.2055395139
C             6.9257518161        6.9257868863        0.2061550500
C             8.5157393686        3.5638001900        3.5650501659
C             9.4011710444        2.6870333554        2.6822892928
C             7.6295083663        4.4512223450        2.6808944477
C             7.6286698363        2.6813995177        4.4518467022
C             9.3995298002        4.4506917503        4.4503554168
C             1.0926220527        6.0387512160        6.0388074326
C             0.2054503840        5.1556374087        5.1556637611
C             1.9755792846        6.9250394395        5.1554174294
C             0.2065200142        6.9250180165        6.9243925111
C             1.9758880472        5.1552643210        6.9251273776
C             6.0388089910        1.0933179436        6.0386219841
C             6.9246427524        0.2068901619        6.9239005151
C             5.1559769829        0.2054397247        5.1559992378
C             5.1554334243        1.9758456348        6.9250384966
C             6.9249494064        1.9756515514        5.1556110858
O            -0.1109307432       -0.3597111975        1.5517230716



     Writing config-only to output data dir ./pwscf.save/
     NEW-OLD atomic charge density approx. for the potential

     Check: negative core charge=   -0.000004
     Generating pointlists ...

     total cpu time spent up to now is       62.7 secs

     Self-consistent Calculation

     iteration #  1     ecut=    50.00 Ry     beta= 0.30
     Davidson diagonalization with overlap
     ethr =  1.00E-06,  avg # of iterations = 18.0

     total cpu time spent up to now is       66.2 secs

     total energy              =    -775.59489176 Ry
     estimated scf accuracy    <       0.08505425 Ry

     total magnetization       =    -0.00 Bohr mag/cell
     absolute magnetization    =     0.00 Bohr mag/cell

     iteration #  2     ecut=    50.00 Ry     beta= 0.30
     Davidson diagonalization with overlap
     ethr =  5.12E-05,  avg # of iterations =  4.0

     total cpu time spent up to now is       67.6 secs

     total energy              =    -775.59870632 Ry
     estimated scf accuracy    <       0.18675793 Ry

     total magnetization       =     0.00 Bohr mag/cell
     absolute magnetization    =     0.00 Bohr mag/cell

     iteration #  3     ecut=    50.00 Ry     beta= 0.30
     Davidson diagonalization with overlap
     ethr =  5.12E-05,  avg # of iterations =  2.0

     total cpu time spent up to now is       68.9 secs

     total energy              =    -775.60678868 Ry
     estimated scf accuracy    <       0.00770201 Ry

     total magnetization       =     0.00 Bohr mag/cell
     absolute magnetization    =     0.00 Bohr mag/cell

     iteration #  4     ecut=    50.00 Ry     beta= 0.30
     Davidson diagonalization with overlap
     ethr =  4.64E-06,  avg # of iterations =  2.0

     total cpu time spent up to now is       70.3 secs

     total energy              =    -775.60104644 Ry
     estimated scf accuracy    <       0.00380807 Ry

     total magnetization       =     0.00 Bohr mag/cell
     absolute magnetization    =     0.00 Bohr mag/cell

     iteration #  5     ecut=    50.00 Ry     beta= 0.30
     Davidson diagonalization with overlap
     ethr =  2.29E-06,  avg # of iterations =  2.0

     total cpu time spent up to now is       71.6 secs

     total energy              =    -775.60036330 Ry
     estimated scf accuracy    <       0.00112445 Ry

     total magnetization       =    -0.00 Bohr mag/cell
     absolute magnetization    =     0.00 Bohr mag/cell

     iteration #  6     ecut=    50.00 Ry     beta= 0.30
     Davidson diagonalization with overlap
     ethr =  6.77E-07,  avg # of iterations =  4.0

     total cpu time spent up to now is       73.0 secs

     total energy              =    -775.60038436 Ry
     estimated scf accuracy    <       0.00007567 Ry

     total magnetization       =     0.00 Bohr mag/cell
     absolute magnetization    =     0.00 Bohr mag/cell

     iteration #  7     ecut=    50.00 Ry     beta= 0.30
     Davidson diagonalization with overlap
     ethr =  4.56E-08,  avg # of iterations =  3.0

     total cpu time spent up to now is       74.4 secs

     total energy              =    -775.60039084 Ry
     estimated scf accuracy    <       0.00000906 Ry

     total magnetization       =    -0.00 Bohr mag/cell
     absolute magnetization    =     0.00 Bohr mag/cell

     iteration #  8     ecut=    50.00 Ry     beta= 0.30
     Davidson diagonalization with overlap
     ethr =  5.46E-09,  avg # of iterations =  4.0

     total cpu time spent up to now is       75.9 secs

     total energy              =    -775.60039299 Ry
     estimated scf accuracy    <       0.00000209 Ry

     total magnetization       =     0.00 Bohr mag/cell
     absolute magnetization    =     0.00 Bohr mag/cell

     iteration #  9     ecut=    50.00 Ry     beta= 0.30
     Davidson diagonalization with overlap
     ethr =  1.26E-09,  avg # of iterations =  2.0

     Magnetic moment per site  (integrated on atomic sphere of radius R)
     atom   1 (R=0.050)  charge=  1.0455  magn= -0.0000
     atom   2 (R=0.050)  charge=  1.0265  magn=  0.0000
     atom   3 (R=0.050)  charge=  1.1509  magn=  0.0000
     atom   4 (R=0.050)  charge=  1.0936  magn=  0.0000
     atom   5 (R=0.050)  charge=  1.0796  magn= -0.0000
     atom   6 (R=0.050)  charge=  1.0344  magn=  0.0000
     atom   7 (R=0.050)  charge=  1.0355  magn= -0.0001
     atom   8 (R=0.050)  charge=  1.1042  magn= -0.0000
     atom   9 (R=0.050)  charge=  1.1040  magn= -0.0000
     atom  10 (R=0.050)  charge=  1.1057  magn=  0.0000
     atom  11 (R=0.050)  charge=  1.0240  magn=  0.0000
     atom  12 (R=0.050)  charge=  1.1196  magn= -0.0000
     atom  13 (R=0.050)  charge=  1.1003  magn=  0.0000
     atom  14 (R=0.050)  charge=  1.1030  magn= -0.0000
     atom  15 (R=0.050)  charge=  1.1030  magn=  0.0000
     atom  16 (R=0.050)  charge=  1.0218  magn= -0.0000
     atom  17 (R=0.050)  charge=  1.0970  magn=  0.0001
     atom  18 (R=0.050)  charge=  1.1024  magn=  0.0000
     atom  19 (R=0.050)  charge=  1.0996  magn=  0.0000
     atom  20 (R=0.050)  charge=  1.1023  magn=  0.0000
     atom  21 (R=0.050)  charge=  1.0204  magn=  0.0000
     atom  22 (R=0.050)  charge=  1.1025  magn= -0.0000
     atom  23 (R=0.050)  charge=  1.1024  magn=  0.0000
     atom  24 (R=0.050)  charge=  1.1030  magn= -0.0000
     atom  25 (R=0.050)  charge=  1.0993  magn= -0.0000
     atom  26 (R=0.050)  charge=  1.0208  magn=  0.0000
     atom  27 (R=0.050)  charge=  1.1022  magn= -0.0000
     atom  28 (R=0.050)  charge=  1.1021  magn= -0.0000
     atom  29 (R=0.050)  charge=  1.1022  magn= -0.0000
     atom  30 (R=0.050)  charge=  1.0999  magn=  0.0000
     atom  31 (R=0.050)  charge=  1.0210  magn= -0.0000
     atom  32 (R=0.050)  charge=  1.1026  magn= -0.0000
     atom  33 (R=0.050)  charge=  1.1025  magn=  0.0000
     atom  34 (R=0.050)  charge=  1.1008  magn=  0.0000
     atom  35 (R=0.050)  charge=  1.1023  magn= -0.0000
     atom  36 (R=0.050)  charge=  1.0212  magn=  0.0000
     atom  37 (R=0.050)  charge=  1.0994  magn= -0.0000
     atom  38 (R=0.050)  charge=  1.1024  magn=  0.0000
     atom  39 (R=0.050)  charge=  1.1025  magn= -0.0000
     atom  40 (R=0.050)  charge=  1.1027  magn= -0.0000
     atom  41 (R=0.056)  charge=  3.4714  magn=  0.0002

     total cpu time spent up to now is       77.4 secs

     End of self-consistent calculation

 ------ SPIN UP ------------


          k = 0.0000 0.0000 0.0000 ( 19564 PWs)   bands (ev):

   -21.2428 -18.4513 -18.1637 -17.9183 -17.9118 -17.8980 -17.8312 -17.5590
   -17.2702 -15.2669 -15.2399 -15.2142 -15.1612 -15.1538 -15.1247 -15.1171
   -15.0184 -14.8406 -14.1644 -14.1404 -14.1338 -14.1230 -14.0412 -13.7916
   -12.9538 -10.8753 -10.7083 -10.6460 -10.6247 -10.4707 -10.4278 -10.4090
   -10.3690 -10.3275  -9.7501  -9.6082  -9.5548  -9.5466  -9.4731  -9.4272
    -9.1295  -8.9793  -8.9568  -8.8817  -8.8592  -8.8243  -8.7028  -8.6396
    -8.5787  -6.3209  -5.3274  -4.4561  -4.4037  -4.1609  -4.1410  -4.1121
    -4.0930  -4.0141  -3.9637  -3.9480  -3.8243  -3.8008  -3.7889  -3.7829
    -3.7562  -3.7294  -3.5289  -3.5017  -3.3643  -3.3500  -3.3139  -3.2948
    -3.2450  -3.1540  -3.1219  -3.0433  -3.0369  -3.0272  -2.8131  -2.7171
    -2.7131  -2.3748  -1.5511  -0.6614   1.5863   1.9638   2.0305   2.0420
     2.0711   2.1438   2.1746   2.2499   2.2641   2.2933   2.4312   2.4606
     2.5104   2.6132   2.6347   2.7069

 ------ SPIN DOWN ----------


          k = 0.0000 0.0000 0.0000 ( 19564 PWs)   bands (ev):

   -21.2426 -18.4513 -18.1637 -17.9183 -17.9118 -17.8980 -17.8312 -17.5590
   -17.2702 -15.2669 -15.2398 -15.2142 -15.1612 -15.1538 -15.1247 -15.1171
   -15.0183 -14.8406 -14.1644 -14.1405 -14.1338 -14.1230 -14.0412 -13.7917
   -12.9538 -10.8753 -10.7083 -10.6461 -10.6246 -10.4707 -10.4278 -10.4090
   -10.3690 -10.3274  -9.7501  -9.6082  -9.5549  -9.5466  -9.4731  -9.4272
    -9.1295  -8.9793  -8.9568  -8.8817  -8.8592  -8.8243  -8.7028  -8.6396
    -8.5787  -6.3208  -5.3273  -4.4561  -4.4037  -4.1609  -4.1410  -4.1121
    -4.0930  -4.0141  -3.9637  -3.9480  -3.8243  -3.8008  -3.7889  -3.7829
    -3.7562  -3.7294  -3.5289  -3.5016  -3.3642  -3.3500  -3.3140  -3.2947
    -3.2449  -3.1540  -3.1219  -3.0433  -3.0369  -3.0272  -2.8131  -2.7171
    -2.7132  -2.3745  -1.5511  -0.6618   1.5863   1.9638   2.0305   2.0420
     2.0711   2.1439   2.1746   2.2500   2.2641   2.2933   2.4312   2.4606
     2.5104   2.6132   2.6347   2.7069

     the spin up/dw Fermi energies are    -1.0259   -1.0259 ev

!    total energy              =    -775.60039361 Ry
     total all-electron energy =     -3195.011199 Ry
     estimated scf accuracy    <       0.00000027 Ry
     smearing contrib. (-TS)   =      -0.00000000 Ry
     internal energy E=F+TS    =    -775.60039361 Ry

     The total energy is F=E-TS. E is the sum of the following terms:
     one-electron contribution =    -689.23414379 Ry
     hartree contribution      =     386.99458506 Ry
     xc contribution           =    -187.88219448 Ry
     ewald contribution        =     -29.24698611 Ry
     one-center paw contrib.   =    -256.23165429 Ry

     total magnetization       =     0.00 Bohr mag/cell
     absolute magnetization    =     0.00 Bohr mag/cell

     convergence has been achieved in   9 iterations

     Forces acting on atoms (cartesian axes, Ry/au):

     atom    1 type  1   force =    -0.03548731   -0.04245761    0.05193991
     atom    2 type  1   force =    -0.13077064   -0.15871836    0.08314792
     atom    3 type  1   force =     0.04240307    0.04943100   -0.01653134
     atom    4 type  1   force =     0.02494570    0.01722636   -0.01341442
     atom    5 type  1   force =     0.01627496    0.01425016    0.00112076
     atom    6 type  1   force =    -0.02058147   -0.02342127   -0.02632164
     atom    7 type  1   force =     0.12601870    0.13262586    0.13976354
     atom    8 type  1   force =     0.00443874    0.00484231   -0.00542183
     atom    9 type  1   force =    -0.00203708   -0.00780453   -0.00239899
     atom   10 type  1   force =    -0.01161936   -0.00188593   -0.00114048
     atom   11 type  1   force =     0.00848600    0.00822345   -0.00837527
     atom   12 type  1   force =     0.04256649    0.04266055   -0.04239830
     atom   13 type  1   force =    -0.00859593   -0.00867894   -0.00881467
     atom   14 type  1   force =    -0.00826333    0.00846457    0.00760487
     atom   15 type  1   force =     0.00849884   -0.00870622    0.00794472
     atom   16 type  1   force =     0.00161018   -0.00238658    0.00185876
     atom   17 type  1   force =    -0.00905595    0.02269753   -0.01809571
     atom   18 type  1   force =    -0.00875561    0.00819501    0.00925590
     atom   19 type  1   force =    -0.00560849   -0.00691010   -0.00577555
     atom   20 type  1   force =     0.00831370    0.00717668   -0.00766591
     atom   21 type  1   force =     0.00178517    0.00223044    0.00072115
     atom   22 type  1   force =     0.00870287   -0.00909464   -0.00899716
     atom   23 type  1   force =    -0.00840607    0.00799372   -0.00830866
     atom   24 type  1   force =     0.00792310    0.00785005    0.00775112
     atom   25 type  1   force =    -0.00932381   -0.00930828    0.00973430
     atom   26 type  1   force =    -0.00217377    0.00073108    0.00142241
     atom   27 type  1   force =     0.00263903    0.00558007   -0.00146136
     atom   28 type  1   force =     0.00831468   -0.00892805    0.00871126
     atom   29 type  1   force =     0.00760849    0.00813561   -0.00787989
     atom   30 type  1   force =    -0.00739521   -0.00755141   -0.00739203
     atom   31 type  1   force =    -0.00049663    0.00193864    0.00017740
     atom   32 type  1   force =     0.00713866    0.00695991    0.00736798
     atom   33 type  1   force =    -0.00754144   -0.00837769    0.00802556
     atom   34 type  1   force =     0.01083889   -0.01005546   -0.01038608
     atom   35 type  1   force =    -0.00816027    0.00821805   -0.00862826
     atom   36 type  1   force =     0.00114537   -0.00049911   -0.00009231
     atom   37 type  1   force =    -0.00687216    0.00824934   -0.00762702
     atom   38 type  1   force =     0.00651533    0.00638621    0.00680152
     atom   39 type  1   force =     0.00828766   -0.00786743   -0.00856212
     atom   40 type  1   force =    -0.00799294   -0.00703904    0.00784123
     atom   41 type  2   force =    -0.05531816   -0.05037593   -0.13550129

     Total force =     0.388316     Total SCF correction =     0.000558
     Energy error            =      1.1E-01 Ry
     Gradient error          =      1.6E-01 Ry/Bohr

     number of scf cycles    =   4
     number of bfgs steps    =   2

     energy             old  =    -775.4909630533 Ry
     energy             new  =    -775.6003936082 Ry

     CASE: energy            _new < energy            _old

     new trust radius        =       0.3252510032 bohr
     new conv_thr            =       0.0000010000 Ry


ATOMIC_POSITIONS (angstrom)
C             1.2381048533        1.2814164209        1.0467113970
C             0.1990129242        0.1600087296        0.3907263189
C             2.0427696782        2.0585701853        0.2063389340
C             0.2294964231        2.0091522122        1.9511788145
C             1.9960681931        0.2240369089        1.9569584589
C             8.4862311000        8.4832739862        8.4840347198
C             9.4002401937        9.4201777965        9.3810979223
C             7.6364443053        7.6367352923        9.4032616314
C             7.6301323268        9.3951779894        7.6285551983
C             9.3926383062        7.6282480160        7.6280743222
C             3.5676446071        3.5667746091        8.5093624114
C             2.7184186729        2.7177103525        9.3596449153
C             4.4461618777        4.4461985502        9.3941467292
C             4.4475928590        2.6866560810        7.6327919328
C             2.6864611858        4.4470756741        7.6333542898
C             3.5656744774        8.5134694343        3.5667532348
C             2.6909394412        9.4122026581        2.6800113747
C             4.4460976989        7.6340645092        2.6863353467
C             4.4474572319        9.3953260542        4.4464580957
C             2.6862267922        7.6326142863        4.4471556691
C             6.0385938479        6.0384311138        1.0932460772
C             5.1603597272        6.9205355273        1.9705653984
C             6.9206821942        5.1602027869        1.9708800120
C             5.1604730394        5.1604626708        0.2101086942
C             6.9205741081        6.9206356633        0.2119998214
C             8.5149007562        3.5631974897        3.5653998757
C             9.4028631223        2.6932067219        2.6823953006
C             7.6342954090        4.4459777604        2.6860798565
C             7.6326805373        2.6865158493        4.4474538005
C             9.3952007463        4.4463588440        4.4459417891
C             1.0931192288        6.0391917444        6.0383494907
C             0.2096347393        5.1602934035        5.1605478517
C             1.9707698957        6.9199998602        5.1604813673
C             0.2131310479        6.9190920711        6.9179870643
C             1.9709085430        5.1603572887        6.9199969606
C             6.0388623933        1.0941607906        6.0379275804
C             6.9202427953        0.2122845635        6.9187389622
C             5.1605524607        0.2092095055        5.1607367765
C             5.1606401319        1.9710058750        6.9199046119
C             6.9200661456        1.9711443347        5.1606761450
O            -0.2203640173       -0.4831536107        1.5026308471



     Writing config-only to output data dir ./pwscf.save/
     NEW-OLD atomic charge density approx. for the potential

     Check: negative core charge=   -0.000004
     Generating pointlists ...

     total cpu time spent up to now is       79.5 secs

     Self-consistent Calculation

     iteration #  1     ecut=    50.00 Ry     beta= 0.30
     Davidson diagonalization with overlap
     ethr =  1.00E-06,  avg # of iterations = 10.0

     total cpu time spent up to now is       82.7 secs

     total energy              =    -775.66678778 Ry
     estimated scf accuracy    <       0.06666582 Ry

     total magnetization       =     0.00 Bohr mag/cell
     absolute magnetization    =     0.00 Bohr mag/cell

     iteration #  2     ecut=    50.00 Ry     beta= 0.30
     Davidson diagonalization with overlap
     ethr =  4.02E-05,  avg # of iterations =  4.0

     total cpu time spent up to now is       84.2 secs

     total energy              =    -775.67129871 Ry
     estimated scf accuracy    <       0.06263358 Ry

     total magnetization       =    -0.00 Bohr mag/cell
     absolute magnetization    =     0.00 Bohr mag/cell

     iteration #  3     ecut=    50.00 Ry     beta= 0.30
     Davidson diagonalization with overlap
     ethr =  3.77E-05,  avg # of iterations =  2.0

     total cpu time spent up to now is       85.4 secs

     total energy              =    -775.67176028 Ry
     estimated scf accuracy    <       0.00557258 Ry

     total magnetization       =    -0.00 Bohr mag/cell
     absolute magnetization    =     0.00 Bohr mag/cell

     iteration #  4     ecut=    50.00 Ry     beta= 0.30
     Davidson diagonalization with overlap
     ethr =  3.36E-06,  avg # of iterations =  2.0

     total cpu time spent up to now is       86.8 secs

     total energy              =    -775.66985160 Ry
     estimated scf accuracy    <       0.00181925 Ry

     total magnetization       =     0.00 Bohr mag/cell
     absolute magnetization    =     0.00 Bohr mag/cell

     iteration #  5     ecut=    50.00 Ry     beta= 0.30
     Davidson diagonalization with overlap
     ethr =  1.10E-06,  avg # of iterations =  3.0

     total cpu time spent up to now is       88.2 secs

     total energy              =    -775.66948317 Ry
     estimated scf accuracy    <       0.00042678 Ry

     total magnetization       =    -0.00 Bohr mag/cell
     absolute magnetization    =     0.00 Bohr mag/cell

     iteration #  6     ecut=    50.00 Ry     beta= 0.30
     Davidson diagonalization with overlap
     ethr =  2.57E-07,  avg # of iterations =  2.0

     total cpu time spent up to now is       89.5 secs

     total energy              =    -775.66944546 Ry
     estimated scf accuracy    <       0.00006741 Ry

     total magnetization       =     0.00 Bohr mag/cell
     absolute magnetization    =     0.00 Bohr mag/cell

     iteration #  7     ecut=    50.00 Ry     beta= 0.30
     Davidson diagonalization with overlap
     ethr =  4.06E-08,  avg # of iterations =  4.0

     total cpu time spent up to now is       91.0 secs

     total energy              =    -775.66945433 Ry
     estimated scf accuracy    <       0.00000580 Ry

     total magnetization       =     0.00 Bohr mag/cell
     absolute magnetization    =     0.00 Bohr mag/cell

     iteration #  8     ecut=    50.00 Ry     beta= 0.30
     Davidson diagonalization with overlap
     ethr =  3.49E-09,  avg # of iterations =  4.0

     total cpu time spent up to now is       92.5 secs

     total energy              =    -775.66945548 Ry
     estimated scf accuracy    <       0.00000176 Ry

     total magnetization       =     0.00 Bohr mag/cell
     absolute magnetization    =     0.00 Bohr mag/cell

     iteration #  9     ecut=    50.00 Ry     beta= 0.30
     Davidson diagonalization with overlap
     ethr =  1.06E-09,  avg # of iterations =  2.0

     Magnetic moment per site  (integrated on atomic sphere of radius R)
     atom   1 (R=0.050)  charge=  1.0363  magn= -0.0000
     atom   2 (R=0.050)  charge=  1.0663  magn=  0.0000
     atom   3 (R=0.050)  charge=  1.1464  magn=  0.0000
     atom   4 (R=0.050)  charge=  1.0898  magn=  0.0000
     atom   5 (R=0.050)  charge=  1.0851  magn= -0.0000
     atom   6 (R=0.050)  charge=  1.0192  magn=  0.0000
     atom   7 (R=0.050)  charge=  1.0492  magn= -0.0000
     atom   8 (R=0.050)  charge=  1.0973  magn=  0.0000
     atom   9 (R=0.050)  charge=  1.0993  magn= -0.0000
     atom  10 (R=0.050)  charge=  1.0993  magn=  0.0000
[...]
     absolute magnetization    =     0.03 Bohr mag/cell

     iteration #  2     ecut=    50.00 Ry     beta= 0.30
     Davidson diagonalization with overlap
     ethr =  3.33E-03,  avg # of iterations =  1.0

     total cpu time spent up to now is     1149.3 secs

     total energy              =    -775.52893675 Ry
     estimated scf accuracy    <       1.42335698 Ry

     total magnetization       =     0.00 Bohr mag/cell
     absolute magnetization    =     0.03 Bohr mag/cell

     iteration #  3     ecut=    50.00 Ry     beta= 0.30
     Davidson diagonalization with overlap
     ethr =  8.57E-04,  avg # of iterations =  2.0

     total cpu time spent up to now is     1150.7 secs

     total energy              =    -775.74420973 Ry
     estimated scf accuracy    <       0.23039345 Ry

     total magnetization       =     0.00 Bohr mag/cell
     absolute magnetization    =     0.02 Bohr mag/cell

     iteration #  4     ecut=    50.00 Ry     beta= 0.30
     Davidson diagonalization with overlap
     ethr =  1.39E-04,  avg # of iterations =  2.0

     total cpu time spent up to now is     1151.9 secs

     total energy              =    -775.73949809 Ry
     estimated scf accuracy    <       0.05493351 Ry

     total magnetization       =    -0.00 Bohr mag/cell
     absolute magnetization    =     0.02 Bohr mag/cell

     iteration #  5     ecut=    50.00 Ry     beta= 0.30
     Davidson diagonalization with overlap
     ethr =  3.31E-05,  avg # of iterations =  3.0

     total cpu time spent up to now is     1153.4 secs

     total energy              =    -775.75382438 Ry
     estimated scf accuracy    <       0.01814012 Ry

     total magnetization       =     0.00 Bohr mag/cell
     absolute magnetization    =     0.01 Bohr mag/cell

     iteration #  6     ecut=    50.00 Ry     beta= 0.30
     Davidson diagonalization with overlap
     ethr =  1.09E-05,  avg # of iterations =  1.5

     total cpu time spent up to now is     1154.6 secs

     total energy              =    -775.75130467 Ry
     estimated scf accuracy    <       0.00583137 Ry

     total magnetization       =     0.00 Bohr mag/cell
     absolute magnetization    =     0.01 Bohr mag/cell

     iteration #  7     ecut=    50.00 Ry     beta= 0.30
     Davidson diagonalization with overlap
     ethr =  3.51E-06,  avg # of iterations =  5.5

     total cpu time spent up to now is     1156.4 secs

     total energy              =    -775.75312796 Ry
     estimated scf accuracy    <       0.00861318 Ry

     total magnetization       =     0.00 Bohr mag/cell
     absolute magnetization    =     0.01 Bohr mag/cell

     iteration #  8     ecut=    50.00 Ry     beta= 0.30
     Davidson diagonalization with overlap
     ethr =  3.51E-06,  avg # of iterations =  2.0

     total cpu time spent up to now is     1157.8 secs

     total energy              =    -775.75380087 Ry
     estimated scf accuracy    <       0.00065932 Ry

     total magnetization       =     0.00 Bohr mag/cell
     absolute magnetization    =     0.01 Bohr mag/cell

     iteration #  9     ecut=    50.00 Ry     beta= 0.30
     Davidson diagonalization with overlap
     ethr =  3.97E-07,  avg # of iterations =  4.0

     total cpu time spent up to now is     1159.4 secs

     total energy              =    -775.75413025 Ry
     estimated scf accuracy    <       0.00004793 Ry

     total magnetization       =    -0.00 Bohr mag/cell
     absolute magnetization    =     0.01 Bohr mag/cell

     iteration # 10     ecut=    50.00 Ry     beta= 0.30
     Davidson diagonalization with overlap
     ethr =  2.89E-08,  avg # of iterations =  4.0

     total cpu time spent up to now is     1160.9 secs

     total energy              =    -775.75411251 Ry
     estimated scf accuracy    <       0.00005339 Ry

     total magnetization       =     0.00 Bohr mag/cell
     absolute magnetization    =     0.00 Bohr mag/cell

     iteration # 11     ecut=    50.00 Ry     beta= 0.30
     Davidson diagonalization with overlap
     ethr =  2.89E-08,  avg # of iterations =  2.0

     total cpu time spent up to now is     1162.3 secs

     total energy              =    -775.75412330 Ry
     estimated scf accuracy    <       0.00000064 Ry

     total magnetization       =    -0.00 Bohr mag/cell
     absolute magnetization    =     0.00 Bohr mag/cell

     iteration # 12     ecut=    50.00 Ry     beta= 0.30
     Davidson diagonalization with overlap
     ethr =  3.85E-10,  avg # of iterations =  5.0

     total cpu time spent up to now is     1164.2 secs

     total energy              =    -775.75412418 Ry
     estimated scf accuracy    <       0.00000011 Ry

     total magnetization       =    -0.00 Bohr mag/cell
     absolute magnetization    =     0.00 Bohr mag/cell

     iteration # 13     ecut=    50.00 Ry     beta= 0.30
     Davidson diagonalization with overlap
     ethr =  6.62E-11,  avg # of iterations =  3.0

     total cpu time spent up to now is     1165.6 secs

     total energy              =    -775.75412440 Ry
     estimated scf accuracy    <       0.00000005 Ry

     total magnetization       =     0.00 Bohr mag/cell
     absolute magnetization    =     0.00 Bohr mag/cell

     iteration # 14     ecut=    50.00 Ry     beta= 0.30
     Davidson diagonalization with overlap
     ethr =  2.78E-11,  avg # of iterations =  2.0

     total cpu time spent up to now is     1167.0 secs

     total energy              =    -775.75412458 Ry
     estimated scf accuracy    <       0.00000002 Ry

     total magnetization       =    -0.00 Bohr mag/cell
     absolute magnetization    =     0.00 Bohr mag/cell

     iteration # 15     ecut=    50.00 Ry     beta= 0.30
     Davidson diagonalization with overlap
     ethr =  1.26E-11,  avg # of iterations =  2.0

     Magnetic moment per site  (integrated on atomic sphere of radius R)
     atom   1 (R=0.049)  charge=  0.9746  magn=  0.0000
     atom   2 (R=0.049)  charge=  1.0181  magn=  0.0000
     atom   3 (R=0.049)  charge=  1.0484  magn= -0.0000
     atom   4 (R=0.049)  charge=  1.0484  magn=  0.0000
     atom   5 (R=0.049)  charge=  1.0509  magn= -0.0000
     atom   6 (R=0.049)  charge=  0.9740  magn=  0.0000
     atom   7 (R=0.049)  charge=  1.0071  magn= -0.0000
     atom   8 (R=0.049)  charge=  1.0481  magn= -0.0000
     atom   9 (R=0.049)  charge=  1.0510  magn= -0.0000
     atom  10 (R=0.049)  charge=  1.0487  magn= -0.0000
     atom  11 (R=0.049)  charge=  0.9742  magn=  0.0000
     atom  12 (R=0.049)  charge=  1.0463  magn=  0.0000
     atom  13 (R=0.049)  charge=  1.0478  magn= -0.0000
     atom  14 (R=0.049)  charge=  1.0482  magn=  0.0000
     atom  15 (R=0.049)  charge=  1.0482  magn= -0.0000
     atom  16 (R=0.049)  charge=  0.9752  magn= -0.0000
     atom  17 (R=0.049)  charge=  1.0489  magn=  0.0000
     atom  18 (R=0.049)  charge=  1.0478  magn=  0.0000
     atom  19 (R=0.049)  charge=  1.0500  magn=  0.0000
     atom  20 (R=0.049)  charge=  1.0480  magn= -0.0000
     atom  21 (R=0.049)  charge=  0.9741  magn= -0.0000
     atom  22 (R=0.049)  charge=  1.0480  magn= -0.0000
     atom  23 (R=0.049)  charge=  1.0479  magn= -0.0000
     atom  24 (R=0.049)  charge=  1.0471  magn=  0.0000
     atom  25 (R=0.049)  charge=  1.0487  magn=  0.0000
     atom  26 (R=0.049)  charge=  0.9727  magn= -0.0000
     atom  27 (R=0.049)  charge=  1.0470  magn= -0.0000
     atom  28 (R=0.049)  charge=  1.0498  magn=  0.0000
     atom  29 (R=0.049)  charge=  1.0480  magn=  0.0000
     atom  30 (R=0.049)  charge=  1.0486  magn= -0.0000
     atom  31 (R=0.049)  charge=  0.9730  magn= -0.0000
     atom  32 (R=0.049)  charge=  1.0479  magn=  0.0000
     atom  33 (R=0.049)  charge=  1.0482  magn=  0.0000
     atom  34 (R=0.049)  charge=  1.0474  magn=  0.0000
     atom  35 (R=0.049)  charge=  1.0479  magn=  0.0000
     atom  36 (R=0.049)  charge=  0.9751  magn=  0.0000
     atom  37 (R=0.049)  charge=  1.0488  magn= -0.0000
     atom  38 (R=0.049)  charge=  1.0495  magn= -0.0000
     atom  39 (R=0.049)  charge=  1.0485  magn= -0.0000
     atom  40 (R=0.049)  charge=  1.0486  magn= -0.0000
     atom  41 (R=0.052)  charge=  3.1048  magn=  0.0000

     total cpu time spent up to now is     1168.4 secs

     End of self-consistent calculation

 ------ SPIN UP ------------


          k = 0.0000 0.0000 0.0000 ( 19564 PWs)   bands (ev):

   -22.8335 -18.2594 -18.0089 -17.9537 -17.9191 -17.9165 -17.8856 -17.6568
   -17.3704 -15.2066 -15.1684 -15.1616 -15.1478 -15.1449 -15.1205 -15.1139
   -15.0965 -14.6615 -14.1542 -14.1243 -14.1055 -14.0772 -14.0713 -13.6841
   -12.9141 -10.8217 -10.5944 -10.5844 -10.5206 -10.4626 -10.4180 -10.4103
   -10.3968 -10.3920  -9.7077  -9.5756  -9.5169  -9.5125  -9.4951  -9.4337
    -9.0897  -8.9272  -8.9197  -8.8998  -8.8793  -8.8557  -8.7191  -8.6533
    -8.6113  -6.7432  -6.1118  -4.6461  -4.4493  -4.4360  -4.1121  -4.1017
    -4.0860  -4.0328  -3.9875  -3.9830  -3.7885  -3.7673  -3.7629  -3.7578
    -3.7552  -3.7499  -3.6270  -3.5190  -3.5096  -3.3335  -3.3261  -3.3164
    -3.2368  -3.1644  -3.1550  -3.0576  -3.0413  -3.0360  -2.9893  -2.7718
    -2.7696  -2.6969  -1.2918   0.8992   1.8433   1.9714   2.0386   2.0463
     2.0798   2.1231   2.1278   2.2478   2.2540   2.2906   2.4232   2.4728
     2.5142   2.5954   2.6148   2.6269

 ------ SPIN DOWN ----------


          k = 0.0000 0.0000 0.0000 ( 19564 PWs)   bands (ev):

   -22.8334 -18.2594 -18.0089 -17.9537 -17.9191 -17.9165 -17.8856 -17.6568
   -17.3704 -15.2066 -15.1684 -15.1616 -15.1478 -15.1449 -15.1205 -15.1139
   -15.0965 -14.6615 -14.1542 -14.1243 -14.1055 -14.0772 -14.0713 -13.6841
   -12.9141 -10.8217 -10.5944 -10.5844 -10.5206 -10.4626 -10.4180 -10.4103
   -10.3968 -10.3920  -9.7077  -9.5756  -9.5169  -9.5125  -9.4951  -9.4337
    -9.0897  -8.9272  -8.9197  -8.8998  -8.8793  -8.8557  -8.7190  -8.6533
    -8.6113  -6.7432  -6.1117  -4.6461  -4.4493  -4.4360  -4.1121  -4.1017
    -4.0860  -4.0328  -3.9875  -3.9830  -3.7885  -3.7673  -3.7629  -3.7578
    -3.7552  -3.7499  -3.6270  -3.5190  -3.5096  -3.3335  -3.3261  -3.3163
    -3.2368  -3.1644  -3.1550  -3.0576  -3.0413  -3.0360  -2.9893  -2.7718
    -2.7696  -2.6969  -1.2918   0.8992   1.8434   1.9715   2.0386   2.0463
     2.0798   2.1231   2.1278   2.2478   2.2541   2.2906   2.4232   2.4728
     2.5142   2.5954   2.6148   2.6268

     the spin up/dw Fermi energies are    -0.5455   -0.5455 ev

!    total energy              =    -775.75412461 Ry
     total all-electron energy =     -3195.164930 Ry
     estimated scf accuracy    <          3.0E-09 Ry
     smearing contrib. (-TS)   =      -0.00000000 Ry
     internal energy E=F+TS    =    -775.75412461 Ry

     The total energy is F=E-TS. E is the sum of the following terms:
     one-electron contribution =    -685.02490204 Ry
     hartree contribution      =     384.68208603 Ry
     xc contribution           =    -187.91367642 Ry
     ewald contribution        =     -31.27776661 Ry
     one-center paw contrib.   =    -256.21986557 Ry

     total magnetization       =     0.00 Bohr mag/cell
     absolute magnetization    =     0.00 Bohr mag/cell

     convergence has been achieved in  15 iterations

     Forces acting on atoms (cartesian axes, Ry/au):

     atom    1 type  1   force =    -0.00015394   -0.00002827    0.00007024
     atom    2 type  1   force =    -0.00012639    0.00013850    0.00041143
     atom    3 type  1   force =    -0.00008302   -0.00010088    0.00015680
     atom    4 type  1   force =     0.00023712   -0.00024223   -0.00002856
     atom    5 type  1   force =     0.00003870    0.00011962   -0.00020339
     atom    6 type  1   force =    -0.00014383   -0.00030596    0.00020793
     atom    7 type  1   force =     0.00018479   -0.00049014   -0.00046757
     atom    8 type  1   force =    -0.00001797   -0.00044454    0.00031280
     atom    9 type  1   force =    -0.00025331   -0.00027492    0.00005017
     atom   10 type  1   force =    -0.00023308    0.00029508    0.00006875
     atom   11 type  1   force =    -0.00009903    0.00002295    0.00036139
     atom   12 type  1   force =    -0.00005927   -0.00004698    0.00043992
     atom   13 type  1   force =    -0.00043335   -0.00029145    0.00038092
     atom   14 type  1   force =     0.00040905   -0.00037695    0.00024912
     atom   15 type  1   force =     0.00018346   -0.00000592    0.00037124
     atom   16 type  1   force =    -0.00010090    0.00024415   -0.00011403
     atom   17 type  1   force =     0.00011373    0.00039784   -0.00015218
     atom   18 type  1   force =     0.00007402    0.00091078    0.00046148
     atom   19 type  1   force =    -0.00039480    0.00016354    0.00023113
     atom   20 type  1   force =    -0.00042510   -0.00056607   -0.00005846
     atom   21 type  1   force =    -0.00001916    0.00022314   -0.00000403
     atom   22 type  1   force =     0.00041468    0.00030807   -0.00048346
     atom   23 type  1   force =     0.00067804   -0.00008975    0.00004344
     atom   24 type  1   force =     0.00012974    0.00033388    0.00027050
     atom   25 type  1   force =     0.00017689    0.00006653   -0.00025583
     atom   26 type  1   force =     0.00001343   -0.00033272   -0.00007403
     atom   27 type  1   force =    -0.00013268   -0.00025070    0.00003581
     atom   28 type  1   force =     0.00013147    0.00048465   -0.00030111
     atom   29 type  1   force =    -0.00026653    0.00001737   -0.00038742
     atom   30 type  1   force =    -0.00015632   -0.00068244   -0.00025932
     atom   31 type  1   force =    -0.00006089   -0.00014009   -0.00014380
     atom   32 type  1   force =     0.00023049   -0.00003949   -0.00004314
     atom   33 type  1   force =     0.00030486   -0.00004728   -0.00090066
     atom   34 type  1   force =     0.00043335   -0.00017802   -0.00004979
     atom   35 type  1   force =     0.00015516    0.00038915   -0.00025111
     atom   36 type  1   force =    -0.00007921    0.00005120   -0.00001878
     atom   37 type  1   force =     0.00022670    0.00003981    0.00000552
     atom   38 type  1   force =    -0.00040585    0.00021323   -0.00007155
     atom   39 type  1   force =     0.00011728    0.00049112    0.00071443
     atom   40 type  1   force =    -0.00079359    0.00002580   -0.00025434
     atom   41 type  2   force =     0.00018524   -0.00000157   -0.00032046

     Total force =     0.003322     Total SCF correction =     0.000062
     Energy error            =      2.7E-05 Ry
     Gradient error          =      9.1E-04 Ry/Bohr

     bfgs converged in  83 scf cycles and  76 bfgs steps
     (criteria: energy <  1.0E-04 Ry, force <  1.0E-03 Ry/Bohr)

     End of BFGS Geometry Optimization

     Final energy             =    -775.7541246122 Ry

     File ./pwscf.bfgs deleted, as requested
Begin final coordinates

ATOMIC_POSITIONS (angstrom)
C             1.1333251418        1.1235207756        1.1629216942
C             0.3267691108       -0.0518840982        0.3888461828
C             1.9532432028        1.9831464414        0.2139719725
C             0.1987945390        1.9969371222        1.9856602890
C             2.0474323088        0.3227014146        2.0759080117
C             8.4647374425        8.5379932323        8.5128985094
C             9.3291021655        9.4001575047        9.4172780088
C             7.5651824133        7.6501602960        9.3807703545
C             7.6163627944        9.4625049465        7.6514986086
C             9.3469006577        7.6544545969        7.6233451758
C             3.5252061248        3.5923694666        8.5190599078
C             2.6475937421        2.6953707531        9.3983318857
C             4.4054291480        4.4735718983        9.4087341015
C             4.4189485982        2.7242295240        7.6319800537
C             2.6409953073        4.4769574270        7.6393201536
C             3.5878660927        8.5463498152        3.6173544517
C             2.7288904868        9.4693457706        2.7578275520
C             4.4448844640        7.6527814794        2.7175463740
C             4.4834606600        9.4164330509        4.4954679856
C             2.6873844369        7.6727280710        4.4933141145
C             6.0015073784        6.0599844632        1.0984839774
C             5.1316051992        6.9416489659        1.9975562312
C             6.8962643077        5.1781663565        1.9720670064
C             5.1119498161        5.1769332922        0.2195016359
C             6.8723866469        6.9455489599        0.2046949809
C             8.5064628252        3.6072943382        3.5587812982
C             9.3886389081        2.7143643534        2.6800864812
C             7.6136126503        4.4798997346        2.6748943956
C             7.6288935580        2.7317654954        4.4546147396
C             9.3898182613        4.4968903785        4.4368953011
C             1.0670544297        6.0796757862        6.0483906693
C             0.1925858176        5.2020628691        5.1495261854
C             1.9658839037        6.9676029479        5.1850221896
C             0.1714536591        6.9563584960        6.9249870730
C             1.9385425399        5.1879477184        6.9347700147
C             6.0416346183        1.1562788339        6.0574623983
C             6.9205548179        0.2827268793        6.9487755244
C             5.1780547146        0.2493883632        5.1860452242
C             5.1414200392        2.0323554115        6.9284182449
C             6.9243238015        2.0346416512        5.1707471027
O             0.5368432701       -1.3233647824        0.6912439385
End final coordinates



     Writing all to output data dir ./pwscf.save/

     init_run     :      1.53s CPU      1.61s WALL (       1 calls)
     electrons    :    953.25s CPU   1007.94s WALL (      84 calls)
     update_pot   :     46.93s CPU     47.75s WALL (      82 calls)
     forces       :     58.01s CPU     61.43s WALL (      84 calls)

     Called by init_run:
     wfcinit      :      0.42s CPU      0.44s WALL (       1 calls)
     potinit      :      1.07s CPU      1.11s WALL (       2 calls)
     hinit0       :      0.38s CPU      0.39s WALL (       1 calls)

     Called by electrons:
     c_bands      :    496.19s CPU    515.82s WALL (     694 calls)
     sum_band     :    134.60s CPU    140.10s WALL (     694 calls)
     v_of_rho     :    117.55s CPU    121.92s WALL (     747 calls)
     newd         :     51.12s CPU     52.68s WALL (     747 calls)
     PAW_pot      :    190.70s CPU    191.82s WALL (     829 calls)
     mix_rho      :      9.67s CPU     10.63s WALL (     694 calls)

     Called by c_bands:
     init_us_2    :      7.50s CPU      7.72s WALL (    3110 calls)
     init_us_2:cp :      7.48s CPU      7.72s WALL (    3110 calls)
     regterg      :    483.95s CPU    503.18s WALL (    1388 calls)

     Called by *egterg:
     rdiaghg      :     38.12s CPU     38.35s WALL (    5461 calls)
     h_psi        :    299.28s CPU    316.51s WALL (    5691 calls)
     s_psi        :     38.59s CPU     38.88s WALL (    5691 calls)
     g_psi        :      1.01s CPU      1.02s WALL (    4301 calls)

     Called by h_psi:
     h_psi:calbec :     41.49s CPU     42.36s WALL (    5691 calls)
     vloc_psi     :    217.13s CPU    233.18s WALL (    5691 calls)
     add_vuspsi   :     38.68s CPU     38.97s WALL (    5691 calls)

     General routines
     calbec       :     65.53s CPU     66.85s WALL (    7915 calls)
     fft          :     42.87s CPU     49.66s WALL (   16501 calls)
     ffts         :      2.90s CPU      3.29s WALL (    2882 calls)
     fftw         :    237.19s CPU    254.55s WALL (  414304 calls)
     interpolate  :      6.34s CPU      7.25s WALL (    1494 calls)

     Parallel routines

     PWSCF        :  18m20.80s CPU  19m30.57s WALL


   This run was terminated on:  20:38:12  25May2025            

=------------------------------------------------------------------------------=
   JOB DONE.
=------------------------------------------------------------------------------=
