ITEM: TIMESTEP
0
ITEM: NUMBER OF ATOMS
51
ITEM: BOX BOUNDS pp pp pp
0.0000000000000000e+00 1.1000000000000000e+01
0.0000000000000000e+00 1.1002000000000001e+01
0.0000000000000000e+00 1.1000000000000000e+01
ITEM: ATOMS id type x y z 
10 1 4.603 4.603 4.603 
11 1 3.085 3.085 3.085 
12 1 3.796 3.796 3.796 
46 1 0.726 0.725 0.725 
47 1 2.26 2.259 2.26 
48 1 1.551 1.55 1.55 
19 1 4.546 4.545 6.226 
20 1 3.013 3.013 7.764 
21 1 3.721 3.721 7.053 
31 1 0.668 0.667 10.103 
32 1 2.187 2.187 8.589 
33 1 1.476 1.475 9.298 
16 1 4.546 6.225 4.546 
17 1 3.013 7.765 3.013 
18 1 3.721 7.053 3.722 
25 1 0.668 10.103 0.668 
26 1 2.188 8.589 2.188 
27 1 1.476 9.298 1.476 
49 2 1.975 9.003 3.46 
50 2 3.089 9.845 4.049 
51 3 3.259 9.176 4.759 
4 1 4.608 6.169 6.169 
5 1 3.086 7.684 7.684 
6 1 3.799 6.974 6.974 
37 1 0.729 10.046 10.046 
38 1 2.259 8.509 8.508 
39 1 1.552 9.219 9.219 
13 1 6.225 4.546 4.546 
14 1 7.764 3.013 3.013 
15 1 7.053 3.721 3.722 
28 1 10.102 0.667 0.668 
29 1 8.589 2.187 2.188 
30 1 9.298 1.475 1.476 
1 1 6.168 4.608 6.169 
2 1 7.684 3.086 7.684 
3 1 6.974 3.799 6.974 
40 1 10.045 0.728 10.046 
41 1 8.508 2.259 8.508 
42 1 9.218 1.551 9.218 
7 1 6.169 6.169 4.608 
8 1 7.684 7.684 3.086 
9 1 6.974 6.974 3.799 
43 1 10.046 10.047 0.729 
44 1 8.508 8.509 2.259 
45 1 9.219 9.219 1.552 
22 1 6.229 6.229 6.229 
23 1 7.764 7.765 7.765 
24 1 7.055 7.056 7.055 
34 1 10.108 10.108 10.107 
35 1 8.59 8.59 8.59 
36 1 9.301 9.301 9.3 
ITEM: TIMESTEP
10
ITEM: NUMBER OF ATOMS
51
ITEM: BOX BOUNDS pp pp pp
0.0000000000000000e+00 1.1000000000000000e+01
0.0000000000000000e+00 1.1002000000000001e+01
0.0000000000000000e+00 1.1000000000000000e+01
ITEM: ATOMS id type x y z 
10 1 4.59761 4.58432 4.59587 
11 1 3.07693 3.08554 3.07518 
12 1 3.79137 3.77315 3.79446 
46 1 0.723565 0.766331 0.723949 
47 1 2.26847 2.26085 2.2682 
48 1 1.5573 1.57029 1.55708 
19 1 4.53897 4.53385 6.23536 
20 1 3.00036 2.99891 7.77563 
21 1 3.70606 3.70869 7.06975 
31 1 0.681388 0.667222 10.1061 
32 1 2.18371 2.1895 8.58237 
33 1 1.49182 1.47957 9.30106 
16 1 4.55395 6.21747 4.56346 
17 1 3.05732 7.69404 2.95315 
18 1 3.71947 7.04255 3.68445 
25 1 0.681294 10.0865 0.668753 
26 1 2.16474 8.63574 2.31705 
27 1 1.46264 9.31029 1.44553 
49 2 1.92853 9.03335 3.41008 
50 2 3.10446 9.82454 4.08252 
51 3 3.25425 9.22468 4.75236 
4 1 4.59747 6.17568 6.18724 
5 1 3.07669 7.69345 7.68343 
6 1 3.79581 6.97629 6.99791 
37 1 0.729073 10.0463 10.0008 
38 1 2.27061 8.49772 8.50356 
39 1 1.55988 9.21131 9.19623 
13 1 6.23353 4.53541 4.53722 
14 1 7.77421 2.9992 2.99895 
15 1 7.07257 3.70813 3.70971 
28 1 10.1066 0.663448 0.681668 
29 1 8.58423 2.19128 2.18366 
30 1 9.29793 1.47583 1.49333 
1 1 6.17425 4.59344 6.17756 
2 1 7.68528 3.08044 7.68772 
3 1 6.98451 3.79612 6.98002 
40 1 10.0377 0.736667 10.037 
41 1 8.49492 2.27349 8.4928 
42 1 9.20154 1.56529 9.20537 
7 1 6.18623 6.1751 4.59788 
8 1 7.68336 7.69379 3.07669 
9 1 6.99745 6.97657 3.79524 
43 1 10.0031 10.0488 0.72788 
44 1 8.5066 8.50061 2.26761 
45 1 9.19825 9.21327 1.55821 
22 1 6.23916 6.24043 6.23881 
23 1 7.77643 7.78217 7.77767 
24 1 7.07321 7.0652 7.07254 
34 1 10.1071 10.0941 10.1087 
35 1 8.5873 8.59304 8.5827 
36 1 9.29573 9.28502 9.30361 
ITEM: TIMESTEP
20
ITEM: NUMBER OF ATOMS
51
ITEM: BOX BOUNDS pp pp pp
0.0000000000000000e+00 1.1000000000000000e+01
0.0000000000000000e+00 1.1002000000000001e+01
0.0000000000000000e+00 1.1000000000000000e+01
ITEM: ATOMS id type x y z 
10 1 4.60082 4.57713 4.60054 
11 1 3.07987 3.08247 3.0791 
12 1 3.79176 3.77994 3.79281 
46 1 0.722376 0.776068 0.722635 
47 1 2.27214 2.26532 2.27189 
48 1 1.55612 1.57271 1.5561 
19 1 4.53939 4.52945 6.24009 
20 1 2.99907 2.99979 7.77567 
21 1 3.708 3.70717 7.06884 
31 1 0.676374 0.673245 10.1021 
32 1 2.18829 2.18698 8.58523 
33 1 1.48231 1.48271 9.2979 
16 1 4.55365 6.21739 4.56423 
17 1 3.06204 7.67849 2.91565 
18 1 3.73913 7.01781 3.67798 
25 1 0.68145 10.0854 0.653368 
26 1 2.14892 8.65876 2.36782 
27 1 1.46714 9.30395 1.43974 
49 2 1.91103 9.04037 3.41368 
50 2 3.10974 9.83253 4.08209 
51 3 3.2592 9.2313 4.77005 
4 1 4.60466 6.17213 6.19576 
5 1 3.08059 7.68969 7.68627 
6 1 3.79521 6.97646 6.99102 
37 1 0.725925 10.0494 9.98525 
38 1 2.27321 8.49539 8.50037 
39 1 1.55882 9.21213 9.19264 
13 1 6.23925 4.53273 4.53787 
14 1 7.77524 3.00081 2.9989 
15 1 7.06948 3.70705 3.71033 
28 1 10.1008 0.669195 0.676826 
29 1 8.58552 2.1893 2.18648 
30 1 9.29728 1.47699 1.48694 
1 1 6.17568 4.59918 6.17679 
2 1 7.68819 3.08118 7.68836 
3 1 6.98146 3.79211 6.981 
40 1 10.0353 0.737976 10.0349 
41 1 8.49948 2.26812 8.49895 
42 1 9.20693 1.56194 9.2081 
7 1 6.19377 6.17147 4.60486 
8 1 7.68657 7.69032 3.07979 
9 1 6.99063 6.97791 3.79453 
43 1 9.99265 10.0503 0.725625 
44 1 8.50262 8.49753 2.27088 
45 1 9.19564 9.21457 1.55704 
22 1 6.24394 6.2364 6.24279 
23 1 7.77487 7.77863 7.7762 
24 1 7.07042 7.06545 7.06791 
34 1 10.1004 10.0984 10.1055 
35 1 8.58892 8.58779 8.58648 
36 1 9.29267 9.29553 9.29812 
ITEM: TIMESTEP
30
ITEM: NUMBER OF ATOMS
51
ITEM: BOX BOUNDS pp pp pp
0.0000000000000000e+00 1.1000000000000000e+01
0.0000000000000000e+00 1.1002000000000001e+01
0.0000000000000000e+00 1.1000000000000000e+01
ITEM: ATOMS id type x y z 
10 1 4.60324 4.57437 4.60384 
11 1 3.07999 3.08066 3.08004 
12 1 3.79246 3.78014 3.79173 
46 1 0.721297 0.775793 0.721701 
47 1 2.27105 2.2639 2.27092 
48 1 1.55374 1.57553 1.55387 
19 1 4.53975 4.52659 6.24342 
20 1 2.99786 3.00056 7.77635 
21 1 3.70859 3.70316 7.06955 
31 1 0.67569 0.676402 10.1043 
32 1 2.1882 2.18763 8.58672 
33 1 1.48164 1.48142 9.29621 
16 1 4.55557 6.21456 4.56557 
17 1 3.07357 7.65772 2.894 
18 1 3.74958 7.0002 3.66033 
25 1 0.679899 10.0865 0.641923 
26 1 2.12802 8.68311 2.38639 
27 1 1.46797 9.30225 1.43354 
49 2 1.89434 9.05057 3.43296 
50 2 3.11472 9.83521 4.0855 
51 3 3.26248 9.24434 4.78403 
4 1 4.60689 6.16905 6.19858 
5 1 3.08124 7.68853 7.68779 
6 1 3.79595 6.97672 6.99062 
37 1 0.723879 10.0509 9.98021 
38 1 2.27379 8.49466 8.50161 
39 1 1.55637 9.21497 9.18632 
13 1 6.24229 4.53 4.53856 
14 1 7.77591 3.00064 2.99889 
15 1 7.07005 3.70529 3.70873 
28 1 10.1031 0.668082 0.679086 
29 1 8.58728 2.18814 2.18797 
30 1 9.29485 1.47847 1.48354 
1 1 6.178 4.59705 6.1784 
2 1 7.68849 3.08138 7.68843 
3 1 6.98149 3.7909 6.98146 
40 1 10.0329 0.740082 10.0334 
41 1 8.49863 2.26863 8.49858 
42 1 9.20664 1.56319 9.20701 
7 1 6.19652 6.16891 4.60708 
8 1 7.68864 7.68986 3.08011 
9 1 6.99002 6.97875 3.79396 
43 1 9.99232 10.0514 0.724068 
44 1 8.504 8.49859 2.27 
45 1 9.19274 9.217 1.55472 
22 1 6.24801 6.23495 6.24532 
23 1 7.77554 7.77837 7.77577 
24 1 7.0717 7.06729 7.07059 
34 1 10.0968 10.0997 10.1063 
35 1 8.58785 8.58814 8.58702 
36 1 9.29344 9.29471 9.29699 
ITEM: TIMESTEP
40
ITEM: NUMBER OF ATOMS
51
ITEM: BOX BOUNDS pp pp pp
0.0000000000000000e+00 1.1000000000000000e+01
0.0000000000000000e+00 1.1002000000000001e+01
0.0000000000000000e+00 1.1000000000000000e+01
ITEM: ATOMS id type x y z 
10 1 4.60438 4.58583 4.6048 
11 1 3.08521 3.07991 3.08326 
12 1 3.79387 3.77911 3.79684 
46 1 0.721699 0.762538 0.720447 
47 1 2.26607 2.26753 2.26665 
48 1 1.55252 1.57265 1.55232 
19 1 4.54266 4.52768 6.24561 
20 1 2.99684 3.00263 7.77518 
21 1 3.71436 3.69614 7.07211 
31 1 0.668102 0.680211 10.1041 
32 1 2.1854 2.18847 8.58194 
33 1 1.48589 1.48628 9.30449 
16 1 4.55482 6.21157 4.5448 
17 1 3.07086 7.64631 2.85413 
18 1 3.75896 6.96966 3.58766 
25 1 0.689092 10.0756 0.621152 
26 1 2.1062 8.70234 2.44369 
27 1 1.48033 9.29083 1.4342 
49 2 1.84038 9.04722 3.50357 
50 2 3.14632 9.84941 4.10692 
51 3 3.28328 9.28949 4.83467 
4 1 4.60922 6.16426 6.17927 
5 1 3.08845 7.68021 7.68866 
6 1 3.80215 6.9722 6.9872 
37 1 0.715502 10.0587 9.96961 
38 1 2.27364 8.49563 8.493 
39 1 1.55651 9.214 9.17841 
13 1 6.24617 4.52747 4.54152 
14 1 7.7771 2.99973 2.99707 
15 1 7.07165 3.70263 3.71011 
28 1 10.1073 0.664943 0.681213 
29 1 8.58612 2.18935 2.18795 
30 1 9.29582 1.47797 1.48513 
1 1 6.18051 4.59477 6.17845 
2 1 7.68908 3.08158 7.68762 
3 1 6.97994 3.79023 6.98229 
40 1 10.0265 0.746702 10.0317 
41 1 8.49478 2.27222 8.49545 
42 1 9.20394 1.56765 9.20349 
7 1 6.18345 6.1688 4.60731 
8 1 7.6901 7.68639 3.08377 
9 1 6.99055 6.97708 3.79576 
43 1 10.0041 10.0516 0.720648 
44 1 8.50002 8.50327 2.26625 
45 1 9.19431 9.219 1.5524 
22 1 6.24803 6.22966 6.24597 
23 1 7.77558 7.77696 7.77458 
24 1 7.07219 7.06454 7.07063 
34 1 10.0896 10.1035 10.1073 
35 1 8.5853 8.58706 8.58571 
36 1 9.29016 9.29546 9.29688 
ITEM: TIMESTEP
50
ITEM: NUMBER OF ATOMS
51
ITEM: BOX BOUNDS pp pp pp
0.0000000000000000e+00 1.1000000000000000e+01
0.0000000000000000e+00 1.1002000000000001e+01
0.0000000000000000e+00 1.1000000000000000e+01
ITEM: ATOMS id type x y z 
10 1 4.60395 4.5867 4.60426 
11 1 3.08426 3.07738 3.08371 
12 1 3.79315 3.78061 3.79388 
46 1 0.723569 0.760759 0.721719 
47 1 2.26596 2.26821 2.26653 
48 1 1.55367 1.57289 1.55326 
19 1 4.54319 4.52688 6.24435 
20 1 2.99892 2.99954 7.77534 
21 1 3.712 3.70188 7.07038 
31 1 0.670004 0.682203 10.1068 
32 1 2.18762 2.1888 8.58775 
33 1 1.47863 1.48481 9.29678 
16 1 4.55563 6.2103 4.54067 
17 1 3.07026 7.64605 2.84921 
18 1 3.75948 6.96837 3.58401 
25 1 0.692157 10.0727 0.620711 
26 1 2.10285 8.70376 2.45674 
27 1 1.48142 9.29021 1.43683 
49 2 1.83365 9.04329 3.50724 
50 2 3.15168 9.85151 4.11027 
51 3 3.28693 9.29524 4.8413 
4 1 4.60803 6.16669 6.17648 
5 1 3.09141 7.67892 7.69007 
6 1 3.79973 6.97171 6.98235 
37 1 0.717701 10.0554 9.96913 
38 1 2.27389 8.49502 8.49395 
39 1 1.5547 9.21636 9.1745 
13 1 6.24557 4.52777 4.54107 
14 1 7.77652 2.99979 2.99857 
15 1 7.07091 3.70428 3.70931 
28 1 10.1063 0.665595 0.681128 
29 1 8.58794 2.18758 2.18688 
30 1 9.29634 1.4775 1.48371 
1 1 6.17918 4.59501 6.17812 
2 1 7.68791 3.08144 7.68845 
3 1 6.98181 3.79064 6.98023 
40 1 10.0277 0.745579 10.0335 
41 1 8.49699 2.27096 8.49616 
42 1 9.20401 1.56613 9.20677 
7 1 6.18257 6.16908 4.60574 
8 1 7.6923 7.68625 3.08426 
9 1 6.98769 6.97835 3.79414 
43 1 10.0054 10.0495 0.721867 
44 1 8.49999 8.50421 2.26547 
45 1 9.1944 9.2183 1.55286 
22 1 6.24655 6.23156 6.24437 
23 1 7.77537 7.7759 7.77414 
24 1 7.07109 7.06422 7.06969 
34 1 10.0893 10.1055 10.1062 
35 1 8.58603 8.58725 8.58643 
36 1 9.28868 9.2964 9.29663 
ITEM: TIMESTEP
60
ITEM: NUMBER OF ATOMS
51
ITEM: BOX BOUNDS pp pp pp
0.0000000000000000e+00 1.1000000000000000e+01
0.0000000000000000e+00 1.1002000000000001e+01
0.0000000000000000e+00 1.1000000000000000e+01
ITEM: ATOMS id type x y z 
10 1 4.60173 4.59521 4.59156 
11 1 3.08183 3.07926 3.0741 
12 1 3.78779 3.76202 3.80501 
46 1 0.736657 0.735625 0.724846 
47 1 2.26601 2.26178 2.26354 
48 1 1.54474 1.57818 1.54803 
19 1 4.54173 4.53855 6.23715 
20 1 3.01292 2.9984 7.77731 
21 1 3.69752 3.71172 7.0584 
31 1 0.671111 0.679201 10.106 
32 1 2.18677 2.19074 8.58892 
33 1 1.47792 1.48707 9.29737 
16 1 4.55031 6.20994 4.50859 
17 1 3.06603 7.64384 2.81251 
18 1 3.75845 6.96546 3.54414 
25 1 0.715497 10.0527 0.617352 
26 1 2.07827 8.70931 2.52567 
27 1 1.48962 9.28446 1.46812 
49 2 1.76964 9.02321 3.56018 
50 2 3.19486 9.86768 4.13744 
51 3 3.31639 9.34141 4.89345 
4 1 4.59825 6.17163 6.14937 
5 1 3.09655 7.67317 7.69311 
6 1 3.79759 6.97299 6.97019 
37 1 0.71975 10.0513 9.96696 
38 1 2.27256 8.49499 8.48338 
39 1 1.55839 9.217 9.16794 
13 1 6.2421 4.53213 4.53801 
14 1 7.77703 2.99901 2.99948 
15 1 7.07054 3.705 3.70829 
28 1 10.1154 0.656685 0.687409 
29 1 8.58983 2.18588 2.18566 
30 1 9.29959 1.47464 1.48433 
1 1 6.17288 4.60066 6.17246 
2 1 7.68754 3.08215 7.68681 
3 1 6.98117 3.79111 6.97931 
40 1 10.0308 0.743485 10.0461 
41 1 8.49906 2.26854 8.49937 
42 1 9.2059 1.56604 9.21137 
7 1 6.17527 6.17401 4.59369 
8 1 7.69551 7.69009 3.08107 
9 1 6.99208 6.98141 3.79075 
43 1 10.0236 10.0386 0.721918 
44 1 8.49754 8.50748 2.25966 
45 1 9.20273 9.22108 1.5557 
22 1 6.23053 6.2409 6.23019 
23 1 7.77233 7.76986 7.77006 
24 1 7.06602 7.06026 7.06615 
34 1 10.0908 10.1055 10.1061 
35 1 8.58085 8.58657 8.58741 
36 1 9.28704 9.297 9.29196 
ITEM: TIMESTEP
70
ITEM: NUMBER OF ATOMS
51
ITEM: BOX BOUNDS pp pp pp
0.0000000000000000e+00 1.1000000000000000e+01
0.0000000000000000e+00 1.1002000000000001e+01
0.0000000000000000e+00 1.1000000000000000e+01
ITEM: ATOMS id type x y z 
10 1 4.60094 4.58936 4.596 
11 1 3.08194 3.06901 3.08356 
12 1 3.78829 3.77817 3.79028 
46 1 0.733239 0.738892 0.721618 
47 1 2.25915 2.26949 2.26007 
48 1 1.55539 1.56262 1.5491 
19 1 4.53515 4.53962 6.23204 
20 1 3.00571 3.00226 7.77309 
21 1 3.7094 3.70873 7.06389 
31 1 0.670396 0.678233 10.1044 
32 1 2.18941 2.19229 8.58899 
33 1 1.4791 1.48763 9.29551 
16 1 4.55104 6.2104 4.50373 
17 1 3.06699 7.6447 2.8095 
18 1 3.76102 6.96401 3.53594 
25 1 0.721486 10.0461 0.621843 
26 1 2.07399 8.70515 2.53965 
27 1 1.48721 9.28517 1.48171 
49 2 1.75063 9.02281 3.5762 
50 2 3.20611 9.87132 4.14396 
51 3 3.3224 9.35074 4.90265 
4 1 4.59581 6.17579 6.14012 
5 1 3.09703 7.67266 7.68971 
6 1 3.79677 6.97236 6.96757 
37 1 0.719566 10.051 9.96762 
38 1 2.27384 8.49572 8.48231 
39 1 1.55666 9.21589 9.16587 
13 1 6.24448 4.53155 4.53998 
14 1 7.77752 2.99907 2.9997 
15 1 7.06981 3.70486 3.70709 
28 1 10.1151 0.655137 0.687513 
29 1 8.59005 2.18597 2.18471 
30 1 9.30117 1.4724 1.48863 
1 1 6.17269 4.60146 6.1738 
2 1 7.6862 3.0821 7.68678 
3 1 6.98225 3.79272 6.97831 
40 1 10.0301 0.743438 10.0437 
41 1 8.49901 2.26998 8.49952 
42 1 9.20441 1.56594 9.21157 
7 1 6.17214 6.17327 4.59234 
8 1 7.69743 7.69058 3.0819 
9 1 6.98692 6.98333 3.78615 
43 1 10.0288 10.0383 0.719805 
44 1 8.50071 8.51168 2.26096 
45 1 9.20524 9.21679 1.54946 
22 1 6.23173 6.23846 6.22887 
23 1 7.7712 7.76692 7.77121 
24 1 7.06294 7.0645 7.06169 
34 1 10.092 10.1056 10.104 
35 1 8.58088 8.58623 8.58471 
36 1 9.28368 9.29464 9.29467 
ITEM: TIMESTEP
80
ITEM: NUMBER OF ATOMS
51
ITEM: BOX BOUNDS pp pp pp
0.0000000000000000e+00 1.1000000000000000e+01
0.0000000000000000e+00 1.1002000000000001e+01
0.0000000000000000e+00 1.1000000000000000e+01
ITEM: ATOMS id type x y z 
10 1 4.60059 4.58949 4.59572 
11 1 3.08094 3.06904 3.08397 
12 1 3.78941 3.77781 3.78869 
46 1 0.733952 0.73809 0.721082 
47 1 2.25941 2.26919 2.25992 
48 1 1.55514 1.56247 1.54951 
19 1 4.53539 4.5395 6.23168 
20 1 3.00559 3.002 7.77313 
21 1 3.70937 3.70932 7.064 
31 1 0.669828 0.677898 10.1042 
32 1 2.18879 2.19305 8.58891 
33 1 1.48049 1.48652 9.29548 
16 1 4.55082 6.21031 4.50294 
17 1 3.06696 7.64493 2.80872 
18 1 3.76155 6.96373 3.53485 
25 1 0.722429 10.0457 0.621626 
26 1 2.07268 8.70526 2.54241 
27 1 1.48686 9.28525 1.48359 
49 2 1.74821 9.02254 3.57786 
50 2 3.20771 9.87194 4.14474 
51 3 3.32318 9.352 4.90402 
4 1 4.59563 6.17581 6.13985 
5 1 3.0969 7.67217 7.6899 
6 1 3.79675 6.97341 6.96605 
37 1 0.719959 10.0516 9.9675 
38 1 2.27354 8.4968 8.48196 
39 1 1.55613 9.21502 9.16705 
13 1 6.24376 4.53151 4.53963 
14 1 7.77668 2.99935 2.99915 
15 1 7.07098 3.70471 3.70838 
28 1 10.1154 0.655122 0.688066 
29 1 8.59046 2.1856 2.18529 
30 1 9.30091 1.47258 1.48777 
1 1 6.17376 4.60197 6.17312 
2 1 7.68704 3.08266 7.686 
3 1 6.98028 3.79224 6.97942 
40 1 10.03 0.743329 10.0437 
41 1 8.49871 2.26997 8.49964 
42 1 9.20468 1.56623 9.21143 
7 1 6.17259 6.1733 4.59184 
8 1 7.69748 7.69073 3.08198 
9 1 6.98656 6.98337 3.78569 
43 1 10.0291 10.0379 0.71988 
44 1 8.50047 8.51183 2.26092 
45 1 9.20611 9.21629 1.54955 
22 1 6.23142 6.23866 6.22856 
23 1 7.77073 7.76687 7.77085 
24 1 7.06284 7.06414 7.06152 
34 1 10.092 10.1054 10.1037 
35 1 8.5799 8.58607 8.58532 
36 1 9.28488 9.29438 9.29322 
ITEM: TIMESTEP
90
ITEM: NUMBER OF ATOMS
51
ITEM: BOX BOUNDS pp pp pp
0.0000000000000000e+00 1.1000000000000000e+01
0.0000000000000000e+00 1.1002000000000001e+01
0.0000000000000000e+00 1.1000000000000000e+01
ITEM: ATOMS id type x y z 
10 1 4.60208 4.59418 4.57012 
11 1 3.07022 3.06431 3.07602 
12 1 3.78484 3.77827 3.77248 
46 1 0.750532 0.707187 0.713688 
47 1 2.25482 2.25678 2.25945 
48 1 1.56097 1.54198 1.54497 
19 1 4.54003 4.54743 6.21852 
20 1 3.01068 3.01499 7.76622 
21 1 3.71462 3.71772 7.05718 
31 1 0.66865 0.667937 10.0896 
32 1 2.19366 2.19661 8.58447 
33 1 1.4836 1.49668 9.29544 
16 1 4.54811 6.20477 4.4699 
17 1 3.06679 7.65751 2.78605 
18 1 3.77588 6.95821 3.47633 
25 1 0.753274 10.0261 0.64139 
26 1 2.02192 8.6975 2.66096 
27 1 1.46979 9.28965 1.57436 
49 2 1.6331 9.01295 3.66129 
50 2 3.28257 9.89998 4.18148 
51 3 3.35855 9.41119 4.96685 
4 1 4.58413 6.18195 6.10286 
5 1 3.09339 7.67266 7.67458 
6 1 3.7887 6.98791 6.93671 
37 1 0.72745 10.0502 9.97006 
38 1 2.26826 8.50754 8.45703 
39 1 1.56546 9.19111 9.19216 
13 1 6.24215 4.5261 4.54372 
14 1 7.77913 2.99994 2.99663 
15 1 7.07169 3.70228 3.7078 
28 1 10.1238 0.643384 0.683824 
29 1 8.59875 2.17836 2.1878 
30 1 9.30627 1.46198 1.49347 
1 1 6.16708 4.60857 6.17532 
2 1 7.68357 3.08781 7.68309 
3 1 6.97579 3.79744 6.97886 
40 1 10.0304 0.736928 10.0479 
41 1 8.49835 2.27235 8.50501 
42 1 9.20218 1.5669 9.21402 
7 1 6.1703 6.17549 4.56776 
8 1 7.69745 7.70286 3.07429 
9 1 6.98679 6.9883 3.77184 
43 1 10.0616 10.0256 0.71232 
44 1 8.51185 8.5181 2.25507 
45 1 9.22472 9.21308 1.54256 
22 1 6.21743 6.2461 6.20901 
23 1 7.75758 7.76599 7.76052 
24 1 7.05162 7.05626 7.05607 
34 1 10.096 10.1018 10.0895 
35 1 8.56961 8.57832 8.5827 
36 1 9.2788 9.28772 9.28483 
ITEM: TIMESTEP
100
ITEM: NUMBER OF ATOMS
51
ITEM: BOX BOUNDS pp pp pp
0.0000000000000000e+00 1.1000000000000000e+01
0.0000000000000000e+00 1.1002000000000001e+01
0.0000000000000000e+00 1.1000000000000000e+01
ITEM: ATOMS id type x y z 
10 1 4.60256 4.59371 4.57185 
11 1 3.0713 3.06572 3.07632 
12 1 3.78461 3.77759 3.77284 
46 1 0.750068 0.70902 0.712952 
47 1 2.25467 2.25519 2.25812 
48 1 1.55997 1.54125 1.54534 
19 1 4.53635 4.54831 6.21686 
20 1 3.01092 3.01368 7.76796 
21 1 3.71266 3.71888 7.05538 
31 1 0.669575 0.669076 10.0917 
32 1 2.19352 2.20123 8.58729 
33 1 1.48461 1.49031 9.28818 
16 1 4.54996 6.20626 4.46625 
17 1 3.06294 7.66147 2.78911 
18 1 3.77547 6.95938 3.47434 
25 1 0.75639 10.0221 0.645021 
26 1 2.02165 8.69601 2.66023 
27 1 1.46841 9.28897 1.57832 
49 2 1.62875 9.0131 3.66487 
50 2 3.28608 9.90107 4.18333 
51 3 3.35843 9.41373 4.96774 
4 1 4.58347 6.18473 6.10108 
5 1 3.09309 7.67687 7.66969 
6 1 3.78779 6.98178 6.93763 
37 1 0.72749 10.0455 9.97849 
38 1 2.26957 8.5033 8.46438 
39 1 1.56207 9.19916 9.18223 
13 1 6.24334 4.52779 4.53957 
14 1 7.77986 2.99856 2.99677 
15 1 7.07304 3.70204 3.70648 
28 1 10.1235 0.643159 0.685268 
29 1 8.5989 2.17647 2.18924 
30 1 9.30776 1.46363 1.49017 
1 1 6.16661 4.60901 6.17329 
2 1 7.68508 3.08649 7.68528 
3 1 6.97746 3.79604 6.98065 
40 1 10.0309 0.73625 10.047 
41 1 8.49811 2.27263 8.50527 
42 1 9.20279 1.56607 9.21436 
7 1 6.1686 6.17222 4.56967 
8 1 7.69839 7.70261 3.07375 
9 1 6.98576 6.98996 3.77031 
43 1 10.0598 10.0244 0.711338 
44 1 8.51179 8.5178 2.25513 
45 1 9.2259 9.21282 1.54272 
22 1 6.21761 6.24606 6.20753 
23 1 7.75732 7.76369 7.7631 
24 1 7.05069 7.06154 7.05226 
34 1 10.099 10.1015 10.0899 
35 1 8.56914 8.57944 8.58334 
36 1 9.28138 9.28737 9.28406 
ITEM: TIMESTEP
107
ITEM: NUMBER OF ATOMS
51
ITEM: BOX BOUNDS pp pp pp
0.0000000000000000e+00 1.1000000000000000e+01
0.0000000000000000e+00 1.1002000000000001e+01
0.0000000000000000e+00 1.1000000000000000e+01
ITEM: ATOMS id type x y z 
10 1 4.60295 4.59337 4.57362 
11 1 3.0716 3.06647 3.07571 
12 1 3.78484 3.77694 3.7736 
46 1 0.748538 0.711082 0.711688 
47 1 2.25559 2.25408 2.2585 
48 1 1.55977 1.54193 1.545 
19 1 4.53317 4.55067 6.21316 
20 1 3.00995 3.01364 7.76869 
21 1 3.71289 3.71963 7.0548 
31 1 0.671294 0.66922 10.0908 
32 1 2.19211 2.20391 8.58926 
33 1 1.486 1.48398 9.28491 
16 1 4.55097 6.20748 4.46239 
17 1 3.0611 7.66326 2.79179 
18 1 3.77745 6.95885 3.47445 
25 1 0.757717 10.0183 0.648763 
26 1 2.01721 8.69764 2.66503 
27 1 1.46672 9.28805 1.58227 
49 2 1.62381 9.01274 3.66797 
50 2 3.29074 9.90298 4.18507 
51 3 3.35816 9.41668 4.96954 
4 1 4.5824 6.18469 6.10008 
5 1 3.09219 7.67836 7.66576 
6 1 3.78715 6.9813 6.93606 
37 1 0.729647 10.0402 9.98541 
38 1 2.27081 8.49848 8.47272 
39 1 1.5583 9.209 9.16995 
13 1 6.24402 4.52935 4.53693 
14 1 7.78089 2.99706 2.99686 
15 1 7.07439 3.70131 3.7053 
28 1 10.1241 0.643764 0.684601 
29 1 8.60068 2.17706 2.188 
30 1 9.30712 1.45974 1.49132 
1 1 6.1669 4.60848 6.17179 
2 1 7.68503 3.08689 7.68636 
3 1 6.97759 3.79605 6.9807 
40 1 10.0321 0.735661 10.0464 
41 1 8.49764 2.27244 8.50643 
42 1 9.20472 1.56515 9.21408 
7 1 6.16799 6.17129 4.56922 
8 1 7.69759 7.70232 3.07333 
9 1 6.98588 6.98963 3.77015 
43 1 10.0577 10.0242 0.71065 
44 1 8.51337 8.51795 2.25458 
45 1 9.22638 9.21348 1.54192 
22 1 6.21722 6.24473 6.20704 
23 1 7.75642 7.76049 7.76575 
24 1 7.04936 7.06785 7.04691 
34 1 10.1031 10.0993 10.0905 
35 1 8.57024 8.58028 8.58316 
36 1 9.2815 9.28764 9.28503 
ITEM: TIMESTEP
108
ITEM: NUMBER OF ATOMS
51
ITEM: BOX BOUNDS pp pp pp
0.0000000000000000e+00 1.1000000000000000e+01
0.0000000000000000e+00 1.1002000000000001e+01
0.0000000000000000e+00 1.1000000000000000e+01
ITEM: ATOMS id type x y z 
10 1 4.60295 4.59337 4.57362 
11 1 3.0716 3.06647 3.07571 
12 1 3.78484 3.77694 3.7736 
46 1 0.748538 0.711082 0.711688 
47 1 2.25559 2.25408 2.2585 
48 1 1.55977 1.54193 1.545 
19 1 4.53317 4.55067 6.21316 
20 1 3.00995 3.01364 7.76869 
21 1 3.71289 3.71963 7.0548 
31 1 0.671294 0.66922 10.0908 
32 1 2.19211 2.20391 8.58926 
33 1 1.486 1.48398 9.28491 
16 1 4.55097 6.20748 4.46239 
17 1 3.0611 7.66326 2.79179 
18 1 3.77745 6.95885 3.47445 
25 1 0.757717 10.0183 0.648763 
26 1 2.01721 8.69764 2.66503 
27 1 1.46672 9.28805 1.58227 
49 2 1.62381 9.01274 3.66797 
50 2 3.29074 9.90298 4.18507 
51 3 3.35816 9.41668 4.96954 
4 1 4.5824 6.18469 6.10008 
5 1 3.09219 7.67836 7.66576 
6 1 3.78715 6.9813 6.93606 
37 1 0.729647 10.0402 9.98541 
38 1 2.27081 8.49848 8.47272 
39 1 1.5583 9.209 9.16995 
13 1 6.24402 4.52935 4.53693 
14 1 7.78089 2.99706 2.99686 
15 1 7.07439 3.70131 3.7053 
28 1 10.1241 0.643764 0.684601 
29 1 8.60068 2.17706 2.188 
30 1 9.30712 1.45974 1.49132 
1 1 6.1669 4.60848 6.17179 
2 1 7.68503 3.08689 7.68636 
3 1 6.97759 3.79605 6.9807 
40 1 10.0321 0.735661 10.0464 
41 1 8.49764 2.27244 8.50643 
42 1 9.20472 1.56515 9.21408 
7 1 6.16799 6.17129 4.56922 
8 1 7.69759 7.70232 3.07333 
9 1 6.98588 6.98963 3.77015 
43 1 10.0577 10.0242 0.71065 
44 1 8.51337 8.51795 2.25458 
45 1 9.22638 9.21348 1.54192 
22 1 6.21722 6.24473 6.20704 
23 1 7.75642 7.76049 7.76575 
24 1 7.04936 7.06785 7.04691 
34 1 10.1031 10.0993 10.0905 
35 1 8.57024 8.58028 8.58316 
36 1 9.2815 9.28764 9.28503 
ITEM: TIMESTEP
110
ITEM: NUMBER OF ATOMS
51
ITEM: BOX BOUNDS pp pp pp
-1.0759177069077845e-03 1.1001075917706908e+01
-1.0986242377851187e-03 1.1003098624237786e+01
-1.0975650302340613e-03 1.1001097565030234e+01
ITEM: ATOMS id type x y z 
10 1 4.60278 4.59318 4.57343 
11 1 3.07113 3.06598 3.07523 
12 1 3.7845 3.7766 3.77326 
46 1 0.747603 0.710125 0.71073 
47 1 2.25496 2.25344 2.25786 
48 1 1.559 1.54113 1.5442 
19 1 4.53298 4.55048 6.21331 
20 1 3.00948 3.01316 7.76914 
21 1 3.71252 3.71926 7.05512 
31 1 0.670347 0.668253 10.0917 
32 1 2.19146 2.20324 8.58987 
33 1 1.48521 1.48319 9.28567 
16 1 4.55079 6.20762 4.46218 
17 1 3.06063 7.66368 2.79127 
18 1 3.77709 6.95916 3.47402 
25 1 0.75679 10.0192 0.6478 
26 1 2.01653 8.69827 2.66447 
27 1 1.46593 9.2888 1.58149 
49 2 1.62305 9.01344 3.6676 
50 2 3.29031 9.90386 4.18481 
51 3 3.35774 9.41746 4.96943 
4 1 4.58222 6.18483 6.1002 
5 1 3.09172 7.67879 7.66619 
6 1 3.78681 6.98161 6.93634 
37 1 0.728714 10.0411 9.98631 
38 1 2.27018 8.49908 8.47331 
39 1 1.55753 9.20974 9.17068 
13 1 6.24417 4.52916 4.53674 
14 1 7.78134 2.99656 2.99636 
15 1 7.0747 3.70096 3.70494 
28 1 10.125 0.642792 0.683637 
29 1 8.60129 2.17639 2.18734 
30 1 9.30787 1.45894 1.49052 
1 1 6.16704 4.60831 6.17192 
2 1 7.68545 3.08641 7.6868 
3 1 6.97788 3.7957 6.981 
40 1 10.033 0.734707 10.0473 
41 1 8.49823 2.27179 8.50704 
42 1 9.20544 1.56437 9.21482 
7 1 6.16813 6.17142 4.56904 
8 1 7.69803 7.70276 3.07285 
9 1 6.98617 6.98993 3.7698 
43 1 10.0586 10.0251 0.709696 
44 1 8.51396 8.51855 2.25394 
45 1 9.2271 9.21421 1.54112 
22 1 6.21736 6.24488 6.20717 
23 1 7.75686 7.76094 7.7662 
24 1 7.04966 7.06815 7.04722 
34 1 10.104 10.1002 10.0914 
35 1 8.57084 8.58089 8.58378 
36 1 9.28225 9.2884 9.28579 
ITEM: TIMESTEP
120
ITEM: NUMBER OF ATOMS
51
ITEM: BOX BOUNDS pp pp pp
-2.6045074818586895e-03 1.1002604507481863e+01
-3.8915072787294789e-03 1.1005891507278729e+01
-1.7220858833315853e-03 1.1001722085883332e+01
ITEM: ATOMS id type x y z 
10 1 4.60308 4.59302 4.57364 
11 1 3.07064 3.06467 3.07524 
12 1 3.7838 3.77595 3.7726 
46 1 0.745642 0.707398 0.709754 
47 1 2.25367 2.2514 2.25733 
48 1 1.5577 1.5388 1.54305 
19 1 4.53308 4.55026 6.21316 
20 1 3.00952 3.01252 7.76887 
21 1 3.71133 3.71804 7.05556 
31 1 0.668501 0.665161 10.0929 
32 1 2.19047 2.20104 8.5902 
33 1 1.48418 1.48203 9.28613 
16 1 4.55109 6.2075 4.46234 
17 1 3.06047 7.66428 2.7921 
18 1 3.77604 6.96054 3.47331 
25 1 0.755126 10.0222 0.647156 
26 1 2.01587 8.69946 2.66435 
27 1 1.46469 9.29074 1.58125 
49 2 1.62175 9.01521 3.66756 
50 2 3.28991 9.9062 4.18473 
51 3 3.35714 9.41957 4.96947 
4 1 4.58257 6.18477 6.09986 
5 1 3.09103 7.67966 7.66642 
6 1 3.78622 6.98292 6.93631 
37 1 0.727105 10.0436 9.9871 
38 1 2.26914 8.5005 8.4736 
39 1 1.55656 9.21196 9.17125 
13 1 6.24405 4.52903 4.5371 
14 1 7.78188 2.99533 2.99637 
15 1 7.07474 3.70056 3.70486 
28 1 10.1269 0.639758 0.682514 
29 1 8.60215 2.1743 2.18699 
30 1 9.30905 1.45748 1.48997 
1 1 6.16697 4.60843 6.17139 
2 1 7.68584 3.08532 7.68696 
3 1 6.97859 3.79472 6.98129 
40 1 10.035 0.731817 10.048 
41 1 8.4997 2.26963 8.50774 
42 1 9.20633 1.56231 9.21562 
7 1 6.16792 6.17126 4.56956 
8 1 7.69865 7.70381 3.07272 
9 1 6.98656 6.99081 3.76925 
43 1 10.0602 10.0278 0.708817 
44 1 8.51495 8.52021 2.2535 
45 1 9.22819 9.2161 1.5405 
22 1 6.21712 6.24493 6.20664 
23 1 7.75725 7.76206 7.76611 
24 1 7.0497 7.06837 7.04725 
34 1 10.1053 10.1032 10.0924 
35 1 8.57157 8.58266 8.58435 
36 1 9.2836 9.28993 9.28584 
ITEM: TIMESTEP
130
ITEM: NUMBER OF ATOMS
51
ITEM: BOX BOUNDS pp pp pp
-4.9729892945392963e-03 1.1004972989294544e+01
-7.1518322272183174e-03 1.1009151832227218e+01
-1.6498882807505968e-03 1.1001649888280749e+01
ITEM: ATOMS id type x y z 
10 1 4.60329 4.59328 4.5742 
11 1 3.06981 3.06338 3.07542 
12 1 3.7828 3.77476 3.77237 
46 1 0.742922 0.704157 0.709052 
47 1 2.2517 2.24875 2.25671 
48 1 1.5558 1.5363 1.54292 
19 1 4.53338 4.55024 6.21264 
20 1 3.00921 3.0116 7.76842 
21 1 3.71019 3.71726 7.05518 
31 1 0.665822 0.661106 10.0934 
32 1 2.18907 2.19836 8.58997 
33 1 1.48238 1.48088 9.28637 
16 1 4.5516 6.20705 4.46285 
17 1 3.0595 7.66549 2.79326 
18 1 3.77524 6.96157 3.47341 
25 1 0.752534 10.0256 0.646985 
26 1 2.01472 8.70077 2.66466 
27 1 1.46276 9.293 1.58167 
49 2 1.61971 9.01725 3.66784 
50 2 3.28933 9.90897 4.18486 
51 3 3.35619 9.42212 4.96963 
4 1 4.58285 6.18451 6.09895 
5 1 3.08999 7.68089 7.6661 
6 1 3.78522 6.98408 6.93644 
37 1 0.724578 10.0467 9.98748 
38 1 2.26722 8.50247 8.47375 
39 1 1.55519 9.2145 9.17138 
13 1 6.24385 4.52903 4.53759 
14 1 7.78241 2.99431 2.99692 
15 1 7.07534 3.6996 3.705 
28 1 10.1296 0.635994 0.681876 
29 1 8.60347 2.17168 2.1871 
30 1 9.3109 1.45605 1.48984 
1 1 6.16665 4.60863 6.17064 
2 1 7.6866 3.08419 7.68686 
3 1 6.9794 3.79335 6.98144 
40 1 10.038 0.728275 10.0482 
41 1 8.50183 2.26704 8.50821 
42 1 9.20773 1.55987 9.21605 
7 1 6.16747 6.17104 4.57015 
8 1 7.69951 7.70495 3.07289 
9 1 6.98731 6.99198 3.76891 
43 1 10.0626 10.0312 0.708269 
44 1 8.51662 8.52226 2.25318 
45 1 9.2298 9.21833 1.54062 
22 1 6.21679 6.24495 6.2058 
23 1 7.75761 7.76318 7.76529 
24 1 7.05022 7.0688 7.04748 
34 1 10.1076 10.1067 10.093 
35 1 8.57271 8.58474 8.58465 
36 1 9.28563 9.29166 9.28516 
ITEM: TIMESTEP
136
ITEM: NUMBER OF ATOMS
51
ITEM: BOX BOUNDS pp pp pp
-6.9322951072934066e-03 1.1006932295107296e+01
-9.2918259048235235e-03 1.1011291825904824e+01
-2.1766977149515472e-03 1.1002176697714949e+01
ITEM: ATOMS id type x y z 
10 1 4.60316 4.59327 4.57448 
11 1 3.06892 3.06253 3.07538 
12 1 3.7823 3.77396 3.77186 
46 1 0.740859 0.701988 0.70828 
47 1 2.25024 2.24704 2.25617 
48 1 1.55434 1.53485 1.54227 
19 1 4.53343 4.55016 6.21245 
20 1 3.00874 3.01093 7.76842 
21 1 3.70934 3.71675 7.05511 
31 1 0.663844 0.658535 10.0941 
32 1 2.18793 2.19667 8.59012 
33 1 1.48087 1.48 9.28696 
16 1 4.55171 6.2069 4.46297 
17 1 3.05858 7.66639 2.79359 
18 1 3.77462 6.96221 3.47327 
25 1 0.750534 10.0277 0.646409 
26 1 2.01364 8.70171 2.66454 
27 1 1.4612 9.29449 1.58152 
49 2 1.61811 9.01858 3.6678 
50 2 3.28877 9.91078 4.18481 
51 3 3.3554 9.42378 4.96967 
4 1 4.58298 6.1844 6.09877 
5 1 3.08925 7.68168 7.66629 
6 1 3.78421 6.98487 6.93635 
37 1 0.722622 10.0487 9.98814 
38 1 2.26573 8.50382 8.47416 
39 1 1.554 9.21607 9.17187 
13 1 6.24387 4.5289 4.53782 
14 1 7.783 2.99354 2.99705 
15 1 7.07582 3.69903 3.70474 
28 1 10.1316 0.633612 0.681098 
29 1 8.60457 2.17001 2.18684 
30 1 9.31239 1.45503 1.48933 
1 1 6.16646 4.6085 6.17028 
2 1 7.68716 3.08321 7.68699 
3 1 6.98027 3.79286 6.98176 
40 1 10.04 0.726024 10.0489 
41 1 8.50317 2.26546 8.50889 
42 1 9.20923 1.55825 9.21639 
7 1 6.16734 6.1711 4.57036 
8 1 7.70015 7.70584 3.07275 
9 1 6.98807 6.99247 3.76848 
43 1 10.0646 10.0333 0.707581 
44 1 8.51798 8.52366 2.25277 
45 1 9.23102 9.21967 1.54004 
22 1 6.2167 6.24501 6.20543 
23 1 7.75808 7.76396 7.76507 
24 1 7.05069 7.06911 7.04778 
34 1 10.1096 10.1089 10.0936 
35 1 8.57395 8.58602 8.58494 
36 1 9.28676 9.29295 9.28553 
ITEM: TIMESTEP
140
ITEM: NUMBER OF ATOMS
51
ITEM: BOX BOUNDS pp pp pp
-6.9322951072934066e-03 1.1006932295107296e+01
-9.2918259048235235e-03 1.1011291825904824e+01
-2.1766977149515472e-03 1.1002176697714949e+01
ITEM: ATOMS id type x y z 
10 1 4.60353 4.59351 4.57453 
11 1 3.06915 3.0626 3.07527 
12 1 3.78192 3.77385 3.77204 
46 1 0.740566 0.701862 0.707853 
47 1 2.25001 2.2468 2.25579 
48 1 1.55426 1.53464 1.54239 
19 1 4.53377 4.55039 6.21224 
20 1 3.00911 3.01118 7.76824 
21 1 3.70909 3.71692 7.05491 
31 1 0.66367 0.657922 10.0943 