
     Program PWSCF v.7.1 starts on 25May2025 at  2:25: 2 

     This program is part of the open-source Quantum ESPRESSO suite
     for quantum simulation of materials; please cite
         "P. Giannozzi et al., J. Phys.:Condens. Matter 21 395502 (2009);
         "P. Giannozzi et al., J. Phys.:Condens. Matter 29 465901 (2017);
         "P. Giannozzi et al., J. Chem. Phys. 152 154105 (2020);
          URL http://www.quantum-espresso.org", 
     in publications or presentations arising from this work. More details at
     http://www.quantum-espresso.org/quote

     Parallel version (MPI), running on    16 processors

     MPI processes distributed on     1 nodes
     246372 MiB available memory on the printing compute node when the environment starts

     Reading input from input.pwi
Warning: card &CELL ignored
Warning: card / ignored
Warning: card &FCP ignored
Warning: card / ignored
Warning: card &RISM ignored
Warning: card / ignored

     Current dimensions of program PWSCF are:
     Max number of different atomic species (ntypx) = 10
     Max number of k-points (npk) =  40000
     Max angular momentum in pseudopotentials (lmaxx) =  4
     file C.pbe-n-kjpaw_psl.1.0.0.UPF: wavefunction(s)  2S 2P renormalized

     IMPORTANT: XC functional enforced from input :
     Exchange-correlation= PBE
                           (   1   4   3   4   0   0   0)
     Any further DFT definition will be discarded
     Please, verify this is what you really want


     gamma-point specific algorithms are used
     Message from routine  set_nelup_neldw :
     BEWARE: non-integer number of up and down electrons!

     R & G space division:  proc/nbgrp/npool/nimage =      16
     Subspace diagonalization in iterative solution of the eigenvalue problem:
     a serial algorithm will be used


     Parallelization info
     --------------------
     sticks:   dense  smooth     PW     G-vecs:    dense   smooth      PW
     Min         858     428    106                75870    26832    3354
     Max         860     430    108                75880    26846    3360
     Sum       13753    6869   1725              1214029   429409   53715

     Using Slab Decomposition



     bravais-lattice index     =            0
     lattice parameter (alat)  =      20.7870  a.u.
     unit-cell volume          =    8983.6663 (a.u.)^3
     number of atoms/cell      =           49
     number of atomic types    =            2
     number of electrons       =       193.00 (up:  96.50, down:  96.50)
     number of Kohn-Sham states=          116
     kinetic-energy cutoff     =      50.0000  Ry
     charge density cutoff     =     400.0000  Ry
     scf convergence threshold =      1.0E-06
     mixing beta               =       0.3000
     number of iterations used =            8  plain     mixing
     energy convergence thresh.=      1.0E-04
     force convergence thresh. =      1.0E-03
     Exchange-correlation= PBE
                           (   1   4   3   4   0   0   0)
     nstep                     =         1000


     celldm(1)=  20.786987  celldm(2)=   0.000000  celldm(3)=   0.000000
     celldm(4)=   0.000000  celldm(5)=   0.000000  celldm(6)=   0.000000

     crystal axes: (cart. coord. in units of alat)
               a(1) = (   1.000000   0.000000   0.000000 )  
               a(2) = (   0.000000   1.000182   0.000000 )  
               a(3) = (   0.000000   0.000000   1.000000 )  

     reciprocal axes: (cart. coord. in units 2 pi/alat)
               b(1) = (  1.000000  0.000000  0.000000 )  
               b(2) = (  0.000000  0.999818  0.000000 )  
               b(3) = (  0.000000  0.000000  1.000000 )  


     PseudoPot. # 1 for C  read from file:
     /home/ana.bisette/espresso/pseudo/C.pbe-n-kjpaw_psl.1.0.0.UPF
     MD5 check sum: 5d2aebdfa2cae82b50a7e79e9516da0f
     Pseudo is Projector augmented-wave + core cor, Zval =  4.0
     Generated using "atomic" code by A. Dal Corso  v.5.1
     Shape of augmentation charge: PSQ
     Using radial grid of 1073 points,  4 beta functions with: 
                l(1) =   0
                l(2) =   0
                l(3) =   1
                l(4) =   1
     Q(r) pseudized with 0 coefficients 


     PseudoPot. # 2 for H  read from file:
     /home/ana.bisette/espresso/pseudo/H.pbe-rrkjus_psl.1.0.0.UPF
     MD5 check sum: f52b6d4d1c606e5624b1dc7b2218f220
     Pseudo is Ultrasoft, Zval =  1.0
     Generated using "atomic" code by A. Dal Corso  v.5.1
     Using radial grid of  929 points,  2 beta functions with: 
                l(1) =   0
                l(2) =   0
     Q(r) pseudized with 0 coefficients 


     atomic species   valence    mass     pseudopotential
        C              4.00    12.01100     C ( 1.00)
        H              1.00     1.00800     H ( 1.00)

     Starting magnetic structure 
     atomic species   magnetization
        C            0.000
        H            0.000

     No symmetry found



   Cartesian axes

     site n.     atom                  positions (alat units)
         1           C   tau(   1) = (   0.5607273   0.4189091   0.5608182  )
         2           C   tau(   2) = (   0.6985455   0.2805455   0.6985455  )
         3           C   tau(   3) = (   0.6340000   0.3453636   0.6340000  )
         4           C   tau(   4) = (   0.4189091   0.5608182   0.5608182  )
         5           C   tau(   5) = (   0.2805455   0.6985455   0.6985455  )
         6           C   tau(   6) = (   0.3453636   0.6340000   0.6340000  )
         7           C   tau(   7) = (   0.5608182   0.5608182   0.4189091  )
         8           C   tau(   8) = (   0.6985455   0.6985455   0.2805455  )
         9           C   tau(   9) = (   0.6340000   0.6340000   0.3453636  )
        10           C   tau(  10) = (   0.4184545   0.4184545   0.4184545  )
        11           C   tau(  11) = (   0.2804545   0.2804545   0.2804545  )
        12           C   tau(  12) = (   0.3450909   0.3450909   0.3450909  )
        13           C   tau(  13) = (   0.5659091   0.4132727   0.4132727  )
        14           C   tau(  14) = (   0.7058182   0.2739091   0.2739091  )
        15           C   tau(  15) = (   0.6411818   0.3382727   0.3383636  )
        16           C   tau(  16) = (   0.4132727   0.5659091   0.4132727  )
        17           C   tau(  17) = (   0.2739091   0.7059091   0.2739091  )
        18           C   tau(  18) = (   0.3382727   0.6411818   0.3383636  )
        19           C   tau(  19) = (   0.4132727   0.4131818   0.5660000  )
        20           C   tau(  20) = (   0.2739091   0.2739091   0.7058182  )
        21           C   tau(  21) = (   0.3382727   0.3382727   0.6411818  )
        22           C   tau(  22) = (   0.5662727   0.5662727   0.5662727  )
        23           C   tau(  23) = (   0.7058182   0.7059091   0.7059091  )
        24           C   tau(  24) = (   0.6413636   0.6414545   0.6413636  )
        25           C   tau(  25) = (   0.0607273   0.9184545   0.0607273  )
        26           C   tau(  26) = (   0.1989091   0.7808182   0.1989091  )
        27           C   tau(  27) = (   0.1341818   0.8452727   0.1341818  )
        28           C   tau(  28) = (   0.9183636   0.0606364   0.0607273  )
        29           C   tau(  29) = (   0.7808182   0.1988182   0.1989091  )
        30           C   tau(  30) = (   0.8452727   0.1340909   0.1341818  )
        31           C   tau(  31) = (   0.0607273   0.0606364   0.9184545  )
        32           C   tau(  32) = (   0.1988182   0.1988182   0.7808182  )
        33           C   tau(  33) = (   0.1341818   0.1340909   0.8452727  )
        34           C   tau(  34) = (   0.9189091   0.9189091   0.9188182  )
        35           C   tau(  35) = (   0.7809091   0.7809091   0.7809091  )
        36           C   tau(  36) = (   0.8455455   0.8455455   0.8454545  )
        37           C   tau(  37) = (   0.0662727   0.9132727   0.9132727  )
        38           C   tau(  38) = (   0.2053636   0.7735455   0.7734545  )
        39           C   tau(  39) = (   0.1410909   0.8380909   0.8380909  )
        40           C   tau(  40) = (   0.9131818   0.0661818   0.9132727  )
        41           C   tau(  41) = (   0.7734545   0.2053636   0.7734545  )
        42           C   tau(  42) = (   0.8380000   0.1410000   0.8380000  )
        43           C   tau(  43) = (   0.9132727   0.9133636   0.0662727  )
        44           C   tau(  44) = (   0.7734545   0.7735455   0.2053636  )
        45           C   tau(  45) = (   0.8380909   0.8380909   0.1410909  )
        46           C   tau(  46) = (   0.0660000   0.0659091   0.0659091  )
        47           C   tau(  47) = (   0.2054545   0.2053636   0.2054545  )
        48           C   tau(  48) = (   0.1410000   0.1409091   0.1409091  )
        49           H   tau(  49) = (   0.1568182   0.7969091   0.9275455  )

     number of k points=     1  Gaussian smearing, width (Ry)=  0.0001
                       cart. coord. in units 2pi/alat
        k(    1) = (   0.0000000   0.0000000   0.0000000), wk =   1.0000000

     Dense  grid:   607015 G-vectors     FFT dimensions: ( 135, 135, 135)

     Smooth grid:   214705 G-vectors     FFT dimensions: (  96,  96,  96)

     Estimated max dynamical RAM per process >     173.29 MB

     Estimated total dynamical RAM >       2.71 GB

     Check: negative core charge=   -0.000004
     Generating pointlists ...
     new r_m :   0.0411 (alat units)  0.8551 (a.u.) for type    1
     new r_m :   0.0411 (alat units)  0.8551 (a.u.) for type    2

     Initial potential from superposition of free atoms

     starting charge     192.9980, renormalised to     193.0000
     Starting wfcs are  193 randomized atomic wfcs
     Checking if some PAW data can be deallocated... 

     total cpu time spent up to now is        2.7 secs

     Self-consistent Calculation

     iteration #  1     ecut=    50.00 Ry     beta= 0.30
     Davidson diagonalization with overlap
     ethr =  1.00E-02,  avg # of iterations =  2.0

     total cpu time spent up to now is        5.0 secs

     total energy              =    -883.17021239 Ry
     estimated scf accuracy    <       5.32421872 Ry

     total magnetization       =     0.00 Bohr mag/cell
     absolute magnetization    =     0.06 Bohr mag/cell

     iteration #  2     ecut=    50.00 Ry     beta= 0.30
     Davidson diagonalization with overlap
     ethr =  2.76E-03,  avg # of iterations =  1.0

     negative rho (up, down):  2.453E-06 2.436E-06

     total cpu time spent up to now is        6.8 secs

     total energy              =    -882.22029363 Ry
     estimated scf accuracy    <       1.78288396 Ry

     total magnetization       =     0.00 Bohr mag/cell
     absolute magnetization    =     0.04 Bohr mag/cell

     iteration #  3     ecut=    50.00 Ry     beta= 0.30
     Davidson diagonalization with overlap
     ethr =  9.24E-04,  avg # of iterations =  2.0

     negative rho (up, down):  8.875E-07 8.838E-07

     total cpu time spent up to now is        9.0 secs

     total energy              =    -882.62759771 Ry
     estimated scf accuracy    <       0.14134374 Ry

     total magnetization       =    -0.00 Bohr mag/cell
     absolute magnetization    =     0.03 Bohr mag/cell

     iteration #  4     ecut=    50.00 Ry     beta= 0.30
     Davidson diagonalization with overlap
     ethr =  7.32E-05,  avg # of iterations = 10.0

     negative rho (up, down):  5.911E-07 5.903E-07

     total cpu time spent up to now is       11.4 secs

     total energy              =    -882.61865366 Ry
     estimated scf accuracy    <       0.05764218 Ry

     total magnetization       =     0.00 Bohr mag/cell
     absolute magnetization    =     0.02 Bohr mag/cell

     iteration #  5     ecut=    50.00 Ry     beta= 0.30
     Davidson diagonalization with overlap
     ethr =  2.99E-05,  avg # of iterations =  2.0

     negative rho (up, down):  1.082E-06 1.081E-06

     total cpu time spent up to now is       13.5 secs

     total energy              =    -882.62841668 Ry
     estimated scf accuracy    <       0.02717152 Ry

     total magnetization       =    -0.00 Bohr mag/cell
     absolute magnetization    =     0.02 Bohr mag/cell

     iteration #  6     ecut=    50.00 Ry     beta= 0.30
     Davidson diagonalization with overlap
     ethr =  1.41E-05,  avg # of iterations =  1.0

     negative rho (up, down):  1.682E-06 1.678E-06

     total cpu time spent up to now is       15.4 secs

     total energy              =    -882.62599806 Ry
     estimated scf accuracy    <       0.00709870 Ry

     total magnetization       =    -0.00 Bohr mag/cell
     absolute magnetization    =     0.01 Bohr mag/cell

     iteration #  7     ecut=    50.00 Ry     beta= 0.30
     Davidson diagonalization with overlap
     ethr =  3.68E-06,  avg # of iterations =  4.0

     negative rho (up, down):  1.577E-06 1.576E-06

     total cpu time spent up to now is       17.8 secs

     total energy              =    -882.62750647 Ry
     estimated scf accuracy    <       0.00263023 Ry

     total magnetization       =     0.00 Bohr mag/cell
     absolute magnetization    =     0.01 Bohr mag/cell

     iteration #  8     ecut=    50.00 Ry     beta= 0.30
     Davidson diagonalization with overlap
     ethr =  1.36E-06,  avg # of iterations =  2.0

     negative rho (up, down):  1.552E-06 1.551E-06

     total cpu time spent up to now is       19.9 secs

     total energy              =    -882.62791330 Ry
     estimated scf accuracy    <       0.00008619 Ry

     total magnetization       =     0.00 Bohr mag/cell
     absolute magnetization    =     0.01 Bohr mag/cell

     iteration #  9     ecut=    50.00 Ry     beta= 0.30
     Davidson diagonalization with overlap
     ethr =  4.47E-08,  avg # of iterations =  4.0

     negative rho (up, down):  1.577E-06 1.577E-06

     total cpu time spent up to now is       22.1 secs

     total energy              =    -882.62791262 Ry
     estimated scf accuracy    <       0.00003368 Ry

     total magnetization       =    -0.00 Bohr mag/cell
     absolute magnetization    =     0.01 Bohr mag/cell

     iteration # 10     ecut=    50.00 Ry     beta= 0.30
     Davidson diagonalization with overlap
     ethr =  1.75E-08,  avg # of iterations =  2.0

     negative rho (up, down):  1.562E-06 1.562E-06

     total cpu time spent up to now is       24.3 secs

     total energy              =    -882.62791744 Ry
     estimated scf accuracy    <       0.00000267 Ry

     total magnetization       =    -0.00 Bohr mag/cell
     absolute magnetization    =     0.00 Bohr mag/cell

     iteration # 11     ecut=    50.00 Ry     beta= 0.30
     Davidson diagonalization with overlap
     ethr =  1.38E-09,  avg # of iterations =  4.0

     negative rho (up, down):  1.551E-06 1.551E-06

     Magnetic moment per site  (integrated on atomic sphere of radius R)
     atom   1 (R=0.041)  charge=  0.8330  magn= -0.0000
     atom   2 (R=0.041)  charge=  0.8663  magn= -0.0000
     atom   3 (R=0.041)  charge=  0.8816  magn=  0.0000
     atom   4 (R=0.041)  charge=  0.8318  magn=  0.0000
     atom   5 (R=0.041)  charge=  0.8660  magn=  0.0001
     atom   6 (R=0.041)  charge=  0.8815  magn= -0.0001
     atom   7 (R=0.041)  charge=  0.8326  magn= -0.0000
     atom   8 (R=0.041)  charge=  0.8662  magn=  0.0000
     atom   9 (R=0.041)  charge=  0.8817  magn= -0.0000
     atom  10 (R=0.041)  charge=  0.8298  magn=  0.0000
     atom  11 (R=0.041)  charge=  0.8660  magn=  0.0000
     atom  12 (R=0.041)  charge=  0.8811  magn= -0.0000
     atom  13 (R=0.041)  charge=  0.8271  magn=  0.0000
     atom  14 (R=0.041)  charge=  0.8659  magn= -0.0000
     atom  15 (R=0.041)  charge=  0.8746  magn=  0.0000
     atom  16 (R=0.041)  charge=  0.8281  magn= -0.0000
     atom  17 (R=0.041)  charge=  0.8668  magn= -0.0001
     atom  18 (R=0.041)  charge=  0.8734  magn=  0.0001
     atom  19 (R=0.041)  charge=  0.8272  magn=  0.0000
     atom  20 (R=0.041)  charge=  0.8663  magn=  0.0000
     atom  21 (R=0.041)  charge=  0.8750  magn= -0.0000
     atom  22 (R=0.041)  charge=  0.8243  magn=  0.0000
     atom  23 (R=0.041)  charge=  0.8662  magn= -0.0000
     atom  24 (R=0.041)  charge=  0.8733  magn=  0.0000
     atom  25 (R=0.041)  charge=  0.8355  magn=  0.0000
     atom  26 (R=0.041)  charge=  0.8654  magn=  0.0000
     atom  27 (R=0.041)  charge=  0.8843  magn= -0.0000
     atom  28 (R=0.041)  charge=  0.8330  magn=  0.0000
     atom  29 (R=0.041)  charge=  0.8660  magn=  0.0001
     atom  30 (R=0.041)  charge=  0.8832  magn= -0.0001
     atom  31 (R=0.041)  charge=  0.8342  magn= -0.0000
     atom  32 (R=0.041)  charge=  0.8661  magn=  0.0000
     atom  33 (R=0.041)  charge=  0.8837  magn= -0.0000
     atom  34 (R=0.041)  charge=  0.8320  magn= -0.0000
     atom  35 (R=0.041)  charge=  0.8638  magn= -0.0000
     atom  36 (R=0.041)  charge=  0.8843  magn= -0.0000
     atom  37 (R=0.041)  charge=  0.8287  magn=  0.0000
     atom  38 (R=0.041)  charge=  0.8640  magn= -0.0000
     atom  39 (R=0.041)  charge=  0.9122  magn=  0.0000
     atom  40 (R=0.041)  charge=  0.8266  magn=  0.0000
     atom  41 (R=0.041)  charge=  0.8648  magn=  0.0000
     atom  42 (R=0.041)  charge=  0.8754  magn= -0.0000
     atom  43 (R=0.041)  charge=  0.8268  magn= -0.0000
     atom  44 (R=0.041)  charge=  0.8646  magn=  0.0000
     atom  45 (R=0.041)  charge=  0.8756  magn= -0.0000
     atom  46 (R=0.041)  charge=  0.8264  magn= -0.0000
     atom  47 (R=0.041)  charge=  0.8657  magn= -0.0000
     atom  48 (R=0.041)  charge=  0.8747  magn=  0.0000
     atom  49 (R=0.041)  charge=  0.4720  magn= -0.0000

     total cpu time spent up to now is       26.5 secs

     End of self-consistent calculation

 ------ SPIN UP ------------


          k = 0.0000 0.0000 0.0000 ( 26858 PWs)   bands (ev):

   -21.6457 -21.5382 -18.5408 -17.6476 -17.5883 -17.5107 -17.4556 -17.4214
   -17.2104 -16.8865 -16.7990 -16.7321 -16.6852 -16.3301 -16.0996 -16.0543
   -16.0265 -15.9533 -15.8974 -15.7975 -15.6560 -14.8262 -14.6894 -14.6402
   -14.3885 -14.1694 -14.1029 -13.6381 -13.1951 -13.0656 -12.9720 -12.9122
   -12.3660 -12.0644 -11.9071 -11.8452 -11.6890 -11.0203 -10.9301 -10.8496
   -10.6525 -10.4060 -10.2536 -10.0152  -9.9825  -9.7836  -9.5928  -9.5724
    -9.5090  -9.4804  -9.4798  -9.4683  -8.2110  -7.0640  -6.9666  -6.8186
    -6.6959  -6.6501  -6.5376  -6.3747  -6.3375  -6.0983  -5.9760  -5.9485
    -5.8560  -5.7615  -5.6045  -5.5129  -5.5004  -5.4560  -5.3927  -5.3741
    -5.3006  -5.2442  -4.8240  -4.7888  -4.7609  -4.4859  -4.3601  -4.3446
    -4.3099  -4.0720  -3.9512  -3.7436  -3.6668  -3.6023  -3.4499  -3.4286
    -3.2990  -3.1632  -3.0356  -3.0237  -2.9917  -2.2003  -2.1242  -2.0816
    -0.8642  -0.3668  -0.2859   0.1199   0.4764   0.5545   0.7403   1.0552
     1.1452   1.2302   1.2535   1.4936   1.5523   2.1370   2.1842   2.2059
     2.2690   2.3795   2.4996   2.5517

 ------ SPIN DOWN ----------


          k = 0.0000 0.0000 0.0000 ( 26858 PWs)   bands (ev):

   -21.6458 -21.5382 -18.5407 -17.6476 -17.5883 -17.5107 -17.4556 -17.4215
   -17.2104 -16.8866 -16.7990 -16.7321 -16.6852 -16.3302 -16.0996 -16.0542
   -16.0265 -15.9533 -15.8974 -15.7976 -15.6561 -14.8262 -14.6895 -14.6402
   -14.3885 -14.1694 -14.1029 -13.6381 -13.1951 -13.0656 -12.9720 -12.9122
   -12.3659 -12.0644 -11.9071 -11.8452 -11.6890 -11.0203 -10.9301 -10.8496
   -10.6525 -10.4060 -10.2536 -10.0152  -9.9825  -9.7836  -9.5928  -9.5724
    -9.5090  -9.4804  -9.4798  -9.4683  -8.2110  -7.0640  -6.9666  -6.8186
    -6.6960  -6.6502  -6.5377  -6.3747  -6.3375  -6.0983  -5.9760  -5.9485
    -5.8560  -5.7615  -5.6045  -5.5129  -5.5004  -5.4560  -5.3927  -5.3741
    -5.3006  -5.2441  -4.8240  -4.7888  -4.7609  -4.4859  -4.3601  -4.3445
    -4.3099  -4.0720  -3.9512  -3.7436  -3.6668  -3.6024  -3.4499  -3.4286
    -3.2990  -3.1633  -3.0356  -3.0237  -2.9917  -2.2002  -2.1242  -2.0816
    -0.8644  -0.3668  -0.2859   0.1199   0.4763   0.5544   0.7403   1.0552
     1.1452   1.2301   1.2535   1.4935   1.5522   2.1371   2.1842   2.2059
     2.2690   2.3795   2.4995   2.5516

     the spin up/dw Fermi energies are    -0.8642   -0.8644 ev

!    total energy              =    -882.62791812 Ry
     estimated scf accuracy    <       0.00000044 Ry
     smearing contrib. (-TS)   =      -0.00005642 Ry
     internal energy E=F+TS    =    -882.62786170 Ry

     The total energy is F=E-TS. E is the sum of the following terms:
     one-electron contribution =   -1226.31732097 Ry
     hartree contribution      =     657.29169782 Ry
     xc contribution           =    -219.04684915 Ry
     ewald contribution        =     201.48321622 Ry
     one-center paw contrib.   =    -296.03860562 Ry

     total magnetization       =    -0.00 Bohr mag/cell
     absolute magnetization    =     0.00 Bohr mag/cell

     convergence has been achieved in  11 iterations

     negative rho (up, down):  1.551E-06 1.551E-06

     Forces acting on atoms (cartesian axes, Ry/au):

     atom    1 type  1   force =     0.01365288   -0.01914602    0.01700496
     atom    2 type  1   force =     0.04599195   -0.04606543    0.04560658
     atom    3 type  1   force =     0.03981634   -0.04033740    0.04095089
     atom    4 type  1   force =    -0.02924171    0.03393338    0.04056808
     atom    5 type  1   force =    -0.11250968    0.11304531    0.10893554
     atom    6 type  1   force =     0.00556921   -0.00102432    0.00347451
     atom    7 type  1   force =     0.01583268    0.01705520   -0.02115061
     atom    8 type  1   force =     0.04796922    0.04812187   -0.04823312
     atom    9 type  1   force =     0.03855857    0.03903187   -0.03920298
     atom   10 type  1   force =    -0.01599785   -0.02050228   -0.01883116
     atom   11 type  1   force =    -0.04949943   -0.04938149   -0.04939495
     atom   12 type  1   force =    -0.03599103   -0.03689273   -0.03673732
     atom   13 type  1   force =    -0.05307465    0.05225354    0.05080736
     atom   14 type  1   force =     0.05021094   -0.05052409   -0.05012695
     atom   15 type  1   force =    -0.00490870    0.00483969    0.00389244
     atom   16 type  1   force =     0.05434165   -0.05279515    0.04067620
     atom   17 type  1   force =    -0.04988844    0.04931452   -0.04932523
     atom   18 type  1   force =     0.00615060   -0.00517622    0.00406215
     atom   19 type  1   force =     0.04965283    0.04485193   -0.05166244
     atom   20 type  1   force =    -0.05578179   -0.05513637    0.05505666
     atom   21 type  1   force =     0.00971051    0.00828952   -0.00960108
     atom   22 type  1   force =    -0.05206126   -0.04570952   -0.04855822
     atom   23 type  1   force =     0.05364854    0.05372531    0.05328334
     atom   24 type  1   force =    -0.00961409   -0.00834067   -0.00834262
     atom   25 type  1   force =     0.01495929   -0.01096324    0.02625939
     atom   26 type  1   force =     0.05079671   -0.05030178    0.04830465
     atom   27 type  1   force =     0.03542516   -0.03729341    0.03612594
     atom   28 type  1   force =    -0.01390426    0.01915600    0.01886189
     atom   29 type  1   force =    -0.04658750    0.04650913    0.04645631
     atom   30 type  1   force =    -0.03918164    0.03970792    0.03977454
     atom   31 type  1   force =     0.01473191    0.03740912   -0.01514295
     atom   32 type  1   force =     0.05249746    0.05170306   -0.05228036
     atom   33 type  1   force =     0.03218512    0.03317916   -0.03249762
     atom   34 type  1   force =    -0.02949625   -0.02302431   -0.02199168
     atom   35 type  1   force =    -0.05132707   -0.05118983   -0.05151318
     atom   36 type  1   force =    -0.03301954   -0.03535871   -0.03406156
     atom   37 type  1   force =    -0.11116140    0.13573231    0.02426155
     atom   38 type  1   force =     0.18499364   -0.16859417   -0.24448685
     atom   39 type  1   force =    -0.07492188    0.05492775    0.13823553
     atom   40 type  1   force =     0.05552024   -0.05353762    0.05122348
     atom   41 type  1   force =    -0.04926477    0.04993124   -0.04941253
     atom   42 type  1   force =     0.00500255   -0.00561193    0.00522767
     atom   43 type  1   force =     0.05195710    0.05186937   -0.05234428
     atom   44 type  1   force =    -0.05112132   -0.05132980    0.05182815
     atom   45 type  1   force =     0.00672120    0.00596659   -0.00646386
     atom   46 type  1   force =    -0.05361459   -0.04888842   -0.05150462
     atom   47 type  1   force =     0.05293692    0.05312688    0.05275878
     atom   48 type  1   force =    -0.00651698   -0.00698407   -0.00625868
     atom   49 type  2   force =     0.03985260   -0.06957169    0.04548827

     Total force =     0.656346     Total SCF correction =     0.000716

     BFGS Geometry Optimization
     Energy error            =      0.0E+00 Ry
     Gradient error          =      2.4E-01 Ry/Bohr

     number of scf cycles    =   1
     number of bfgs steps    =   0

     energy             new  =    -882.6279181213 Ry

     new trust radius        =       0.3498863566 bohr
     new conv_thr            =       0.0000010000 Ry


ATOMIC_POSITIONS (angstrom)
C             6.1752247911        4.5978683610        6.1779986365
C             7.7083378915        3.0616232237        7.7081339614
C             6.9950699012        3.7776543659        6.9956702752
C             4.5925259528        6.1869567724        6.1904677037
C             3.0264624398        7.7438210026        7.7416462040
C             3.8019470968        6.9734579558        6.9758386324
C             6.1773782932        6.1780252224        4.5968075810
C             7.7093842180        7.7094649950        3.0604761310
C             6.9944043169        6.9946547762        3.7782546771
C             4.5945343043        4.5921506627        4.5930349780
C             3.0588060277        3.0588684390        3.0588613199
C             3.7769543669        3.7764772103        3.7765594448
C             6.1969141059        4.5736513800        4.5728860948
C             7.7905704859        2.9862638053        2.9864739629
C             7.0504024274        3.7235610554        3.7240597899
C             4.5747563640        6.1970620079        4.5675249201
C             2.9866001750        7.7910961177        2.9868982135
C             3.7242547573        7.0502608648        3.7241495981
C             4.5722751448        4.5687346180        6.1986614154
C             2.9834815481        2.9838230911        7.7931347294
C             3.7261385809        3.7253866250        7.0479193265
C             6.2014503677        6.2048115646        6.2033040975
C             7.7923895826        7.7934302071        7.7931963285
C             7.0499124440        7.0515863053        7.0505852758
C             0.6759161160       10.0971985020        0.6818958724
C             2.2148804637        8.5623814456        2.2135617179
C             1.4947461857        9.2782651757        1.4951170224
C            10.0946421840        0.6771369163        0.6779812829
C             8.5643469553        2.2116115737        2.2125836202
C             9.2772659699        1.4960125286        1.4970477787
C             0.6757957902        0.6867960532       10.0949866960
C             2.2147804579        2.2143600815        8.5613344228
C             1.4930316326        1.4925576561        9.2808029998
C            10.0923912573       10.0958160595       10.0953625066
C             8.5628388866        8.5629115098        8.5627403967
C             9.2835268131        9.2822889741        9.2819753991
C             0.6701759209       10.1178264434       10.0588386613
C             2.3568944200        8.4197838055        8.3786231312
C             1.5123530492        9.2480665136        9.2921510905
C            10.0743800472        0.6996691138       10.0731062959
C             8.4819302055        2.2854224746        8.4818520147
C             9.2206472361        1.5480302968        9.2207663640
C            10.0734945107       10.0744480888        0.7013006020
C             8.4809477618        8.4818374410        2.2864262749
C             9.2225567080        9.2221573852        1.5485794734
C             0.6976283822        0.6991293619        0.6977449277
C             2.2880130122        2.2871135328        2.2879187441
C             1.5475513617        1.5463041903        1.5466880517
H             1.7460890882        8.7291842469       10.2270713557



     Writing config-only to output data dir ./pwscf.save/
     NEW-OLD atomic charge density approx. for the potential

     Check: negative core charge=   -0.000004

     negative rho (up, down):  1.743E-06 1.744E-06
     Generating pointlists ...

     total cpu time spent up to now is       30.4 secs

     Self-consistent Calculation

     iteration #  1     ecut=    50.00 Ry     beta= 0.30
     Davidson diagonalization with overlap
     ethr =  1.00E-06,  avg # of iterations = 12.5

     negative rho (up, down):  1.642E-06 1.642E-06

     total cpu time spent up to now is       36.0 secs

     total energy              =    -882.48678071 Ry
     estimated scf accuracy    <       0.61451543 Ry

     total magnetization       =    -0.00 Bohr mag/cell
     absolute magnetization    =     0.00 Bohr mag/cell

     iteration #  2     ecut=    50.00 Ry     beta= 0.30
     Davidson diagonalization with overlap
     ethr =  3.18E-04,  avg # of iterations =  3.0

     negative rho (up, down):  1.782E-06 1.783E-06

     total cpu time spent up to now is       38.1 secs

     total energy              =    -882.54429094 Ry
     estimated scf accuracy    <       0.25806713 Ry

     total magnetization       =    -0.00 Bohr mag/cell
     absolute magnetization    =     0.00 Bohr mag/cell

     iteration #  3     ecut=    50.00 Ry     beta= 0.30
     Davidson diagonalization with overlap
     ethr =  1.34E-04,  avg # of iterations =  2.0

     negative rho (up, down):  2.008E-06 2.009E-06

     total cpu time spent up to now is       40.0 secs

     total energy              =    -882.56329409 Ry
     estimated scf accuracy    <       0.22602720 Ry

     total magnetization       =    -0.00 Bohr mag/cell
     absolute magnetization    =     0.00 Bohr mag/cell

     iteration #  4     ecut=    50.00 Ry     beta= 0.30
     Davidson diagonalization with overlap
     ethr =  1.17E-04,  avg # of iterations =  1.0

     negative rho (up, down):  1.708E-06 1.708E-06

     total cpu time spent up to now is       41.8 secs

     total energy              =    -882.58040698 Ry
     estimated scf accuracy    <       0.02396901 Ry

     total magnetization       =    -0.00 Bohr mag/cell
     absolute magnetization    =     0.00 Bohr mag/cell

     iteration #  5     ecut=    50.00 Ry     beta= 0.30
     Davidson diagonalization with overlap
     ethr =  1.24E-05,  avg # of iterations =  2.0

     negative rho (up, down):  1.662E-06 1.662E-06

     total cpu time spent up to now is       43.7 secs

     total energy              =    -882.58150146 Ry
     estimated scf accuracy    <       0.00541827 Ry

     total magnetization       =    -0.00 Bohr mag/cell
     absolute magnetization    =     0.00 Bohr mag/cell

     iteration #  6     ecut=    50.00 Ry     beta= 0.30
     Davidson diagonalization with overlap
     ethr =  2.81E-06,  avg # of iterations =  4.0

     negative rho (up, down):  1.675E-06 1.675E-06

     total cpu time spent up to now is       45.7 secs

     total energy              =    -882.58211331 Ry
     estimated scf accuracy    <       0.00135192 Ry

     total magnetization       =     0.00 Bohr mag/cell
     absolute magnetization    =     0.00 Bohr mag/cell

     iteration #  7     ecut=    50.00 Ry     beta= 0.30
     Davidson diagonalization with overlap
     ethr =  7.00E-07,  avg # of iterations =  2.0

     negative rho (up, down):  1.698E-06 1.698E-06

     total cpu time spent up to now is       47.7 secs

     total energy              =    -882.58227369 Ry
     estimated scf accuracy    <       0.00016156 Ry

     total magnetization       =     0.00 Bohr mag/cell
     absolute magnetization    =     0.00 Bohr mag/cell

     iteration #  8     ecut=    50.00 Ry     beta= 0.30
     Davidson diagonalization with overlap
     ethr =  8.37E-08,  avg # of iterations =  4.0

     negative rho (up, down):  1.711E-06 1.711E-06

     total cpu time spent up to now is       49.9 secs

     total energy              =    -882.58229386 Ry
     estimated scf accuracy    <       0.00004227 Ry

     total magnetization       =     0.00 Bohr mag/cell
     absolute magnetization    =     0.00 Bohr mag/cell

     iteration #  9     ecut=    50.00 Ry     beta= 0.30
     Davidson diagonalization with overlap
     ethr =  2.19E-08,  avg # of iterations =  2.0

     negative rho (up, down):  1.709E-06 1.709E-06

     total cpu time spent up to now is       51.9 secs

     total energy              =    -882.58229934 Ry
     estimated scf accuracy    <       0.00000900 Ry

     total magnetization       =     0.00 Bohr mag/cell
     absolute magnetization    =     0.00 Bohr mag/cell

     iteration # 10     ecut=    50.00 Ry     beta= 0.30
     Davidson diagonalization with overlap
     ethr =  4.66E-09,  avg # of iterations =  2.0

     negative rho (up, down):  1.703E-06 1.703E-06

     total cpu time spent up to now is       53.9 secs

     total energy              =    -882.58230036 Ry
     estimated scf accuracy    <       0.00000183 Ry

     total magnetization       =     0.00 Bohr mag/cell
     absolute magnetization    =     0.00 Bohr mag/cell

     iteration # 11     ecut=    50.00 Ry     beta= 0.30
     Davidson diagonalization with overlap
     ethr =  9.48E-10,  avg # of iterations =  4.0

     negative rho (up, down):  1.705E-06 1.705E-06

     Magnetic moment per site  (integrated on atomic sphere of radius R)
     atom   1 (R=0.041)  charge=  0.8345  magn= -0.0000
     atom   2 (R=0.041)  charge=  0.8828  magn= -0.0000
     atom   3 (R=0.041)  charge=  0.8768  magn=  0.0000
     atom   4 (R=0.041)  charge=  0.8426  magn=  0.0000
     atom   5 (R=0.041)  charge=  0.9353  magn=  0.0000
     atom   6 (R=0.041)  charge=  0.8537  magn= -0.0000
     atom   7 (R=0.041)  charge=  0.8350  magn=  0.0000
     atom   8 (R=0.041)  charge=  0.8824  magn=  0.0000
     atom   9 (R=0.041)  charge=  0.8758  magn= -0.0000
     atom  10 (R=0.041)  charge=  0.8341  magn=  0.0000
     atom  11 (R=0.041)  charge=  0.8809  magn=  0.0000
     atom  12 (R=0.041)  charge=  0.8742  magn= -0.0000
     atom  13 (R=0.041)  charge=  0.8240  magn= -0.0000
     atom  14 (R=0.041)  charge=  0.8651  magn= -0.0000
     atom  15 (R=0.041)  charge=  0.8455  magn=  0.0000
     atom  16 (R=0.041)  charge=  0.8231  magn= -0.0000
     atom  17 (R=0.041)  charge=  0.8665  magn= -0.0000
     atom  18 (R=0.041)  charge=  0.8454  magn=  0.0000
     atom  19 (R=0.041)  charge=  0.8233  magn= -0.0000
     atom  20 (R=0.041)  charge=  0.8641  magn=  0.0000
     atom  21 (R=0.041)  charge=  0.8443  magn= -0.0000
     atom  22 (R=0.041)  charge=  0.8235  magn= -0.0000
     atom  23 (R=0.041)  charge=  0.8647  magn= -0.0000
     atom  24 (R=0.041)  charge=  0.8417  magn=  0.0000
     atom  25 (R=0.041)  charge=  0.8378  magn=  0.0000
     atom  26 (R=0.041)  charge=  0.8825  magn=  0.0000
     atom  27 (R=0.041)  charge=  0.8741  magn= -0.0000
     atom  28 (R=0.041)  charge=  0.8350  magn=  0.0000
     atom  29 (R=0.041)  charge=  0.8846  magn=  0.0000
     atom  30 (R=0.041)  charge=  0.8760  magn= -0.0000
     atom  31 (R=0.041)  charge=  0.8442  magn=  0.0000
     atom  32 (R=0.041)  charge=  0.8828  magn=  0.0000
     atom  33 (R=0.041)  charge=  0.8733  magn= -0.0000
     atom  34 (R=0.041)  charge=  0.8420  magn=  0.0000
     atom  35 (R=0.041)  charge=  0.8826  magn=  0.0000
     atom  36 (R=0.041)  charge=  0.8742  magn= -0.0000
     atom  37 (R=0.041)  charge=  0.8364  magn= -0.0000
     atom  38 (R=0.041)  charge=  0.8975  magn= -0.0000
     atom  39 (R=0.041)  charge=  0.8395  magn=  0.0000
     atom  40 (R=0.041)  charge=  0.8231  magn=  0.0000
     atom  41 (R=0.041)  charge=  0.8656  magn=  0.0000
     atom  42 (R=0.041)  charge=  0.8457  magn= -0.0000
     atom  43 (R=0.041)  charge=  0.8231  magn= -0.0000
     atom  44 (R=0.041)  charge=  0.8652  magn= -0.0000
     atom  45 (R=0.041)  charge=  0.8451  magn=  0.0000
     atom  46 (R=0.041)  charge=  0.8227  magn= -0.0000
     atom  47 (R=0.041)  charge=  0.8655  magn= -0.0000
     atom  48 (R=0.041)  charge=  0.8438  magn=  0.0000
     atom  49 (R=0.041)  charge=  0.4957  magn= -0.0000

     total cpu time spent up to now is       55.9 secs

     End of self-consistent calculation

 ------ SPIN UP ------------


          k = 0.0000 0.0000 0.0000 ( 26858 PWs)   bands (ev):

   -21.9903 -21.9067 -17.8882 -17.6755 -17.6395 -17.6225 -17.4868 -17.4635
   -17.2478 -16.9929 -16.9093 -16.8972 -16.8642 -16.5121 -16.2977 -16.2596
   -15.9272 -15.8360 -15.7770 -15.6051 -15.3910 -14.8060 -14.5842 -14.5149
   -14.3901 -14.2952 -14.2883 -13.9288 -13.3985 -12.7864 -12.7539 -12.6351
   -12.4725 -12.3226 -12.2795 -12.1613 -11.4310 -11.2056 -11.1431 -11.1342
   -10.7859 -10.3486 -10.0691  -9.9659  -9.9581  -9.8148  -9.7134  -9.6937
    -9.6812  -9.5381  -9.5022  -9.4833  -7.6843  -7.0407  -6.9841  -6.8340
    -6.7111  -6.6473  -6.4949  -6.4257  -6.3651  -6.0893  -6.0430  -5.9865
    -5.9446  -5.8635  -5.7177  -5.6510  -5.6394  -5.5983  -5.5477  -5.5344
    -5.5056  -5.4674  -5.1004  -5.0507  -4.9874  -4.7388  -4.6803  -4.6025
    -4.4633  -3.7379  -3.7018  -3.5524  -3.3622  -3.3020  -3.2476  -3.1283
    -3.0972  -2.9761  -2.8961  -2.8518  -2.7412  -2.1790  -2.0061  -1.8467
    -1.2776  -0.8690  -0.5079  -0.1319   0.0669   0.3428   0.5052   0.6434
     0.8625   0.9291   0.9376   1.0595   1.0863   1.8460   1.9697   2.0718
     2.3568   2.3796   2.4763   2.5360

 ------ SPIN DOWN ----------


          k = 0.0000 0.0000 0.0000 ( 26858 PWs)   bands (ev):

   -21.9903 -21.9067 -17.8882 -17.6755 -17.6395 -17.6225 -17.4868 -17.4635
   -17.2478 -16.9929 -16.9093 -16.8972 -16.8642 -16.5121 -16.2977 -16.2596
   -15.9272 -15.8360 -15.7770 -15.6051 -15.3910 -14.8060 -14.5842 -14.5149
   -14.3902 -14.2952 -14.2883 -13.9288 -13.3985 -12.7864 -12.7539 -12.6352
   -12.4725 -12.3226 -12.2795 -12.1613 -11.4310 -11.2056 -11.1431 -11.1342
   -10.7859 -10.3486 -10.0691  -9.9659  -9.9581  -9.8148  -9.7134  -9.6937
    -9.6812  -9.5381  -9.5022  -9.4833  -7.6843  -7.0407  -6.9841  -6.8340
    -6.7111  -6.6473  -6.4950  -6.4257  -6.3651  -6.0893  -6.0430  -5.9865
    -5.9446  -5.8635  -5.7177  -5.6510  -5.6394  -5.5983  -5.5477  -5.5343
    -5.5056  -5.4674  -5.1004  -5.0507  -4.9874  -4.7388  -4.6803  -4.6025
    -4.4633  -3.7379  -3.7018  -3.5524  -3.3622  -3.3020  -3.2476  -3.1283
    -3.0972  -2.9761  -2.8961  -2.8518  -2.7412  -2.1790  -2.0061  -1.8467
    -1.2776  -0.8690  -0.5079  -0.1319   0.0669   0.3428   0.5052   0.6434
     0.8625   0.9291   0.9376   1.0595   1.0863   1.8460   1.9697   2.0718
     2.3568   2.3796   2.4763   2.5360

     the spin up/dw Fermi energies are    -1.2776   -1.2776 ev

!    total energy              =    -882.58230057 Ry
     estimated scf accuracy    <       0.00000048 Ry
     smearing contrib. (-TS)   =      -0.00005642 Ry
     internal energy E=F+TS    =    -882.58224415 Ry

     The total energy is F=E-TS. E is the sum of the following terms:
     one-electron contribution =   -1222.78326639 Ry
     hartree contribution      =     655.26651335 Ry
     xc contribution           =    -218.90103353 Ry
     ewald contribution        =     199.86590478 Ry
     one-center paw contrib.   =    -296.03036236 Ry

     total magnetization       =     0.00 Bohr mag/cell
     absolute magnetization    =     0.00 Bohr mag/cell

     convergence has been achieved in  11 iterations

     negative rho (up, down):  1.705E-06 1.705E-06

     Forces acting on atoms (cartesian axes, Ry/au):

     atom    1 type  1   force =     0.01386978   -0.01480608    0.01929757
     atom    2 type  1   force =    -0.02933977    0.02927610   -0.02957705
     atom    3 type  1   force =     0.01812033   -0.01857017    0.01996663
     atom    4 type  1   force =    -0.00769646    0.01524641    0.02807958
     atom    5 type  1   force =     0.38271320   -0.38454610   -0.36747032
     atom    6 type  1   force =    -0.07910420    0.08341430    0.09121865
     atom    7 type  1   force =     0.01327619    0.01683388   -0.01645502
     atom    8 type  1   force =    -0.03669199   -0.03652714    0.03643524
     atom    9 type  1   force =     0.02511371    0.02585106   -0.02551811
     atom   10 type  1   force =    -0.01518479   -0.01297530   -0.01471463
     atom   11 type  1   force =     0.04423580    0.04409066    0.04399059
     atom   12 type  1   force =    -0.03141087   -0.03174283   -0.03150648
     atom   13 type  1   force =     0.01221053   -0.01218309   -0.01368963
     atom   14 type  1   force =    -0.10638636    0.10565970    0.10581453
     atom   15 type  1   force =     0.05223396   -0.05194704   -0.05265921
     atom   16 type  1   force =    -0.01142390    0.01002820   -0.03984769
     atom   17 type  1   force =     0.10430610   -0.10551562    0.10585430
     atom   18 type  1   force =    -0.04467291    0.04552914   -0.05141325
     atom   19 type  1   force =    -0.01283155   -0.02438086    0.00957092
     atom   20 type  1   force =     0.12044025    0.12125734   -0.12220039
     atom   21 type  1   force =    -0.05991775   -0.06267870    0.06055254
     atom   22 type  1   force =     0.01618196    0.01240879    0.01081710
     atom   23 type  1   force =    -0.11856669   -0.11806873   -0.11894557
     atom   24 type  1   force =     0.05853892    0.05988066    0.06014992
     atom   25 type  1   force =     0.00699893   -0.00190145    0.01043149
     atom   26 type  1   force =    -0.04017455    0.03985625   -0.04141949
     atom   27 type  1   force =     0.02850748   -0.02838482    0.02519202
     atom   28 type  1   force =    -0.01737900    0.01715611    0.01801927
     atom   29 type  1   force =     0.03163342   -0.03165755   -0.03160223
     atom   30 type  1   force =    -0.02121112    0.02174659    0.02154066
     atom   31 type  1   force =    -0.00274681    0.02846218   -0.00895382
     atom   32 type  1   force =    -0.05626665   -0.05631144    0.05653481
     atom   33 type  1   force =     0.04599394    0.04726064   -0.04630386
     atom   34 type  1   force =    -0.02821481    0.00342527   -0.00767633
     atom   35 type  1   force =     0.05140484    0.05123880    0.05139705
     atom   36 type  1   force =    -0.04176437   -0.04459680   -0.04440197
     atom   37 type  1   force =    -0.02979787    0.05503060   -0.00794068
     atom   38 type  1   force =    -0.46761239    0.48541472    0.39743713
     atom   39 type  1   force =     0.17456123   -0.20364653   -0.06586969
     atom   40 type  1   force =    -0.02694731    0.02483935   -0.01404317
     atom   41 type  1   force =     0.10574363   -0.10516409    0.10550924
     atom   42 type  1   force =    -0.05229469    0.05220755   -0.04985098
     atom   43 type  1   force =    -0.01672491   -0.01500027    0.01348289
     atom   44 type  1   force =     0.11119376    0.11088029   -0.11031787
     atom   45 type  1   force =    -0.05515996   -0.05420047    0.05570832
     atom   46 type  1   force =     0.01420886    0.01797561    0.01686060
     atom   47 type  1   force =    -0.11423525   -0.11412675   -0.11443196
     atom   48 type  1   force =     0.05680158    0.05822963    0.05891100
     atom   49 type  2   force =     0.03546854   -0.05426798    0.00403733

     Total force =     1.243571     Total SCF correction =     0.000975
     Energy error            =      4.6E-02 Ry
     Gradient error          =      4.9E-01 Ry/Bohr

     number of scf cycles    =   2
     number of bfgs steps    =   1

     energy             old  =    -882.6279181213 Ry
     energy             new  =    -882.5823005709 Ry

     CASE: energy            _new > energy            _old

     new trust radius        =       0.1581918292 bohr
     new conv_thr            =       0.0000010000 Ry


ATOMIC_POSITIONS (angstrom)
C             6.1712664975        4.6034192483        6.1730684947
C             7.6950037316        3.0749786876        7.6949115300
C             6.9835261966        3.7893491381        6.9837976397
C             4.6010038203        6.1771186780        6.1787060524
C             3.0590816725        7.7110464785        7.7100632011
C             3.8003324516        6.9737549291        6.9748312888
C             6.1727880229        6.1730805148        4.6029396448
C             7.6954768004        7.6955133216        3.0744600601
C             6.9832252703        6.9833385088        3.7896205529
C             4.5991724604        4.5980947601        4.5984945798
C             3.0731570907        3.0731853083        3.0731820896
C             3.7873890225        3.7871732888        3.7872104690
C             6.2123017084        4.5585018375        4.5581558341
C             7.7760131399        3.0009119392        3.0010069564
C             7.0518255765        3.7221579132        3.7229312793
C             4.5590014267        6.2123685784        4.5557319213
C             3.0010640199        7.7767986670        3.0011987701
C             3.7224715521        7.0517615727        3.7229718837
C             4.5578796093        4.5557309776        6.2136395846
C             2.9996540155        2.9998084351        7.7771724946
C             3.7233232730        3.7229832961        7.0507029083
C             6.2165441650        6.2180638410        6.2173822797
C             7.7768355963        7.7778539635        7.7777482215
C             7.0526997966        7.0540044651        7.0530039997
C             0.6715790618       10.1003770067        0.6742826499
C             2.2001532882        8.5769651272        2.1995570522
C             1.4844755903        9.2890774230        1.4846432542
C            10.0986733588        0.6715831377        0.6725127721
C             8.5778537802        2.1981274698        2.1991148314
C             9.2886256586        1.4845002571        1.4855161945
C             0.6715246596        0.6759502600       10.0993769973
C             2.1995601967        2.1993701346        8.5764917436
C             1.4837004006        1.4829382282        9.2902248328
C            10.1009429213       10.1024913547       10.1017384163
C             8.5777198235        8.5777526581        8.5776752939
C             9.2930999623        9.2925403063        9.2918506551
C             0.7024042540       10.0784744199       10.0518046599
C             2.3032603636        8.4686632657        8.4495056828
C             1.5340746836        9.2321416526        9.2520733239
C            10.0582834085        0.7151909418       10.0582553922
C             8.4962132344        2.2709462206        8.4961778825
C             9.2191968775        1.5496573275        9.2192507380
C            10.0584309132       10.0594099248        0.7164764524
C             8.4957690485        8.4967191699        2.2714000622
C             9.2206080711        9.2204275279        1.5504534997
C             0.7131725261        0.7133032777        0.7126773425
C             2.2726653399        2.2717107876        2.2726227191
C             1.5494407897        1.5483290377        1.5485025905
H             1.7345348715        8.7493547344       10.2138832245



     Writing config-only to output data dir ./pwscf.save/
     NEW-OLD atomic charge density approx. for the potential

     Check: negative core charge=   -0.000004

     negative rho (up, down):  1.546E-06 1.546E-06
     Generating pointlists ...

     total cpu time spent up to now is       59.8 secs

     Self-consistent Calculation

     iteration #  1     ecut=    50.00 Ry     beta= 0.30
     Davidson diagonalization with overlap
     ethr =  1.00E-06,  avg # of iterations = 10.0

     negative rho (up, down):  1.549E-06 1.549E-06

     total cpu time spent up to now is       64.7 secs

     total energy              =    -882.69468373 Ry
     estimated scf accuracy    <       0.19581881 Ry

     total magnetization       =     0.00 Bohr mag/cell
     absolute magnetization    =     0.00 Bohr mag/cell

     iteration #  2     ecut=    50.00 Ry     beta= 0.30
     Davidson diagonalization with overlap
     ethr =  1.01E-04,  avg # of iterations =  3.0

     negative rho (up, down):  1.559E-06 1.559E-06

     total cpu time spent up to now is       66.7 secs

     total energy              =    -882.72164607 Ry
     estimated scf accuracy    <       0.05500435 Ry

     total magnetization       =    -0.00 Bohr mag/cell
     absolute magnetization    =     0.00 Bohr mag/cell

     iteration #  3     ecut=    50.00 Ry     beta= 0.30
     Davidson diagonalization with overlap
     ethr =  2.85E-05,  avg # of iterations =  4.0

     negative rho (up, down):  1.579E-06 1.579E-06

     total cpu time spent up to now is       68.7 secs

     total energy              =    -882.72462109 Ry
     estimated scf accuracy    <       0.01957133 Ry

     total magnetization       =     0.00 Bohr mag/cell
     absolute magnetization    =     0.00 Bohr mag/cell

     iteration #  4     ecut=    50.00 Ry     beta= 0.30
     Davidson diagonalization with overlap
     ethr =  1.01E-05,  avg # of iterations =  2.0

     negative rho (up, down):  1.549E-06 1.549E-06

     total cpu time spent up to now is       70.7 secs

     total energy              =    -882.72556206 Ry
     estimated scf accuracy    <       0.00965876 Ry

     total magnetization       =     0.00 Bohr mag/cell
     absolute magnetization    =     0.00 Bohr mag/cell

     iteration #  5     ecut=    50.00 Ry     beta= 0.30
     Davidson diagonalization with overlap
     ethr =  5.00E-06,  avg # of iterations =  2.0

     negative rho (up, down):  1.598E-06 1.598E-06

     total cpu time spent up to now is       72.6 secs

     total energy              =    -882.72631120 Ry
     estimated scf accuracy    <       0.00081665 Ry

     total magnetization       =    -0.00 Bohr mag/cell
     absolute magnetization    =     0.00 Bohr mag/cell

     iteration #  6     ecut=    50.00 Ry     beta= 0.30
     Davidson diagonalization with overlap
     ethr =  4.23E-07,  avg # of iterations =  4.0

     negative rho (up, down):  1.581E-06 1.581E-06

     total cpu time spent up to now is       74.8 secs

     total energy              =    -882.72645579 Ry
     estimated scf accuracy    <       0.00011717 Ry

     total magnetization       =     0.00 Bohr mag/cell
     absolute magnetization    =     0.00 Bohr mag/cell

     iteration #  7     ecut=    50.00 Ry     beta= 0.30
     Davidson diagonalization with overlap
     ethr =  6.07E-08,  avg # of iterations =  4.0

     negative rho (up, down):  1.591E-06 1.591E-06

     total cpu time spent up to now is       76.9 secs

     total energy              =    -882.72646875 Ry
     estimated scf accuracy    <       0.00003782 Ry

     total magnetization       =    -0.00 Bohr mag/cell
     absolute magnetization    =     0.00 Bohr mag/cell

     iteration #  8     ecut=    50.00 Ry     beta= 0.30
     Davidson diagonalization with overlap
     ethr =  1.96E-08,  avg # of iterations =  2.0

     negative rho (up, down):  1.588E-06 1.588E-06

     total cpu time spent up to now is       78.9 secs

     total energy              =    -882.72647321 Ry
     estimated scf accuracy    <       0.00000656 Ry

     total magnetization       =     0.00 Bohr mag/cell
     absolute magnetization    =     0.00 Bohr mag/cell

     iteration #  9     ecut=    50.00 Ry     beta= 0.30
     Davidson diagonalization with overlap
     ethr =  3.40E-09,  avg # of iterations =  2.0

     negative rho (up, down):  1.583E-06 1.583E-06

     total cpu time spent up to now is       81.0 secs

     total energy              =    -882.72647398 Ry
     estimated scf accuracy    <       0.00000122 Ry

     total magnetization       =     0.00 Bohr mag/cell
     absolute magnetization    =     0.00 Bohr mag/cell

     iteration # 10     ecut=    50.00 Ry     beta= 0.30
     Davidson diagonalization with overlap
     ethr =  6.31E-10,  avg # of iterations =  3.0

     negative rho (up, down):  1.568E-06 1.568E-06

     Magnetic moment per site  (integrated on atomic sphere of radius R)
     atom   1 (R=0.041)  charge=  0.8338  magn=  0.0000
     atom   2 (R=0.041)  charge=  0.8731  magn= -0.0000
     atom   3 (R=0.041)  charge=  0.8802  magn=  0.0000
     atom   4 (R=0.041)  charge=  0.8370  magn=  0.0000
     atom   5 (R=0.041)  charge=  0.8792  magn=  0.0000
     atom   6 (R=0.041)  charge=  0.8665  magn= -0.0000
     atom   7 (R=0.041)  charge=  0.8339  magn=  0.0000
     atom   8 (R=0.041)  charge=  0.8728  magn=  0.0000
     atom   9 (R=0.041)  charge=  0.8797  magn= -0.0000
     atom  10 (R=0.041)  charge=  0.8314  magn=  0.0000
     atom  11 (R=0.041)  charge=  0.8732  magn=  0.0000
     atom  12 (R=0.041)  charge=  0.8764  magn= -0.0000
     atom  13 (R=0.041)  charge=  0.8258  magn= -0.0000
     atom  14 (R=0.041)  charge=  0.8645  magn= -0.0000
     atom  15 (R=0.041)  charge=  0.8608  magn=  0.0000
     atom  16 (R=0.041)  charge=  0.8260  magn= -0.0000
     atom  17 (R=0.041)  charge=  0.8656  magn= -0.0000
     atom  18 (R=0.041)  charge=  0.8600  magn=  0.0000
     atom  19 (R=0.041)  charge=  0.8257  magn= -0.0000
     atom  20 (R=0.041)  charge=  0.8640  magn=  0.0000
     atom  21 (R=0.041)  charge=  0.8603  magn= -0.0000
     atom  22 (R=0.041)  charge=  0.8250  magn= -0.0000
     atom  23 (R=0.041)  charge=  0.8616  magn= -0.0000
     atom  24 (R=0.041)  charge=  0.8582  magn=  0.0000
     atom  25 (R=0.041)  charge=  0.8366  magn=  0.0000
     atom  26 (R=0.041)  charge=  0.8722  magn=  0.0000
     atom  27 (R=0.041)  charge=  0.8798  magn= -0.0000
     atom  28 (R=0.041)  charge=  0.8338  magn=  0.0000
     atom  29 (R=0.041)  charge=  0.8738  magn=  0.0000
     atom  30 (R=0.041)  charge=  0.8801  magn= -0.0000
     atom  31 (R=0.041)  charge=  0.8385  magn=  0.0000
     atom  32 (R=0.041)  charge=  0.8726  magn=  0.0000
     atom  33 (R=0.041)  charge=  0.8792  magn= -0.0000
     atom  34 (R=0.041)  charge=  0.8359  magn=  0.0000
     atom  35 (R=0.041)  charge=  0.8727  magn=  0.0000
     atom  36 (R=0.041)  charge=  0.8788  magn= -0.0000
     atom  37 (R=0.041)  charge=  0.8309  magn= -0.0000
     atom  38 (R=0.041)  charge=  0.8547  magn= -0.0000
     atom  39 (R=0.041)  charge=  0.8708  magn=  0.0000
     atom  40 (R=0.041)  charge=  0.8249  magn=  0.0000
     atom  41 (R=0.041)  charge=  0.8645  magn=  0.0000
     atom  42 (R=0.041)  charge=  0.8614  magn= -0.0000
     atom  43 (R=0.041)  charge=  0.8251  magn= -0.0000
     atom  44 (R=0.041)  charge=  0.8641  magn= -0.0000
     atom  45 (R=0.041)  charge=  0.8612  magn=  0.0000
     atom  46 (R=0.041)  charge=  0.8259  magn= -0.0000
     atom  47 (R=0.041)  charge=  0.8640  magn= -0.0000
     atom  48 (R=0.041)  charge=  0.8600  magn=  0.0000
     atom  49 (R=0.041)  charge=  0.4841  magn= -0.0000

     total cpu time spent up to now is       83.0 secs

     End of self-consistent calculation

 ------ SPIN UP ------------


          k = 0.0000 0.0000 0.0000 ( 26858 PWs)   bands (ev):

   -21.7863 -21.7030 -18.0995 -17.6488 -17.6067 -17.5633 -17.4645 -17.4374
   -17.1490 -16.9168 -16.8351 -16.7917 -16.7468 -16.2505 -16.1839 -16.1130
   -16.0737 -15.9581 -15.8946 -15.7158 -15.5475 -14.6946 -14.6458 -14.5873
   -14.5254 -14.2262 -14.1919 -13.7750 -13.2799 -12.9172 -12.8858 -12.8434
   -12.3405 -12.2610 -12.1033 -12.0539 -11.5610 -11.1620 -11.0555 -10.9965
   -10.7553 -10.3948 -10.1995  -9.9939  -9.9718  -9.7855  -9.6404  -9.5823
    -9.5769  -9.5642  -9.5203  -9.4867  -7.9467  -7.0293  -6.9717  -6.8248
    -6.6955  -6.6482  -6.5014  -6.3806  -6.3476  -6.0939  -5.9759  -5.9505
    -5.8915  -5.7774  -5.6588  -5.5624  -5.5512  -5.5128  -5.4533  -5.4360
    -5.3818  -5.3365  -4.9223  -4.8975  -4.8811  -4.5083  -4.4861  -4.4780
    -4.4375  -3.8773  -3.8539  -3.6583  -3.5013  -3.4845  -3.3524  -3.2844
    -3.2271  -3.0699  -2.9705  -2.9483  -2.9325  -2.1774  -2.0537  -2.0275
    -1.1021  -0.5809  -0.3883  -0.0030   0.2728   0.4579   0.6344   0.8414
     1.0196   1.0916   1.1047   1.2956   1.3306   2.0556   2.2392   2.2848
     2.3076   2.3296   2.3337   2.3637

 ------ SPIN DOWN ----------


          k = 0.0000 0.0000 0.0000 ( 26858 PWs)   bands (ev):

   -21.7863 -21.7030 -18.0995 -17.6488 -17.6067 -17.5633 -17.4645 -17.4374
   -17.1490 -16.9168 -16.8351 -16.7917 -16.7468 -16.2505 -16.1839 -16.1130
   -16.0737 -15.9581 -15.8946 -15.7158 -15.5475 -14.6946 -14.6458 -14.5873
   -14.5254 -14.2262 -14.1919 -13.7750 -13.2799 -12.9172 -12.8858 -12.8434
   -12.3405 -12.2610 -12.1033 -12.0539 -11.5610 -11.1620 -11.0555 -10.9965
   -10.7553 -10.3948 -10.1995  -9.9939  -9.9718  -9.7855  -9.6404  -9.5823
    -9.5769  -9.5642  -9.5203  -9.4867  -7.9467  -7.0293  -6.9717  -6.8248
    -6.6955  -6.6482  -6.5014  -6.3806  -6.3476  -6.0939  -5.9759  -5.9505
    -5.8915  -5.7774  -5.6588  -5.5624  -5.5512  -5.5128  -5.4533  -5.4360
    -5.3818  -5.3365  -4.9223  -4.8975  -4.8811  -4.5083  -4.4861  -4.4780
    -4.4375  -3.8773  -3.8539  -3.6583  -3.5013  -3.4845  -3.3524  -3.2844
    -3.2271  -3.0699  -2.9705  -2.9483  -2.9325  -2.1774  -2.0537  -2.0275
    -1.1021  -0.5809  -0.3883  -0.0030   0.2728   0.4579   0.6344   0.8414
     1.0196   1.0916   1.1047   1.2956   1.3306   2.0556   2.2392   2.2848
     2.3076   2.3296   2.3337   2.3637

     the spin up/dw Fermi energies are    -1.1021   -1.1021 ev

!    total energy              =    -882.72647420 Ry
     estimated scf accuracy    <       0.00000021 Ry
     smearing contrib. (-TS)   =      -0.00005642 Ry
     internal energy E=F+TS    =    -882.72641778 Ry

     The total energy is F=E-TS. E is the sum of the following terms:
     one-electron contribution =   -1223.87962336 Ry
     hartree contribution      =     655.91303454 Ry
     xc contribution           =    -218.89711140 Ry
     ewald contribution        =     200.16072024 Ry
     one-center paw contrib.   =    -296.02343779 Ry

     total magnetization       =    -0.00 Bohr mag/cell
     absolute magnetization    =     0.00 Bohr mag/cell

     convergence has been achieved in  10 iterations

     negative rho (up, down):  1.568E-06 1.568E-06

     Forces acting on atoms (cartesian axes, Ry/au):

     atom    1 type  1   force =     0.01385611   -0.01717614    0.01775734
     atom    2 type  1   force =     0.01573154   -0.01585534    0.01538993
     atom    3 type  1   force =     0.03054309   -0.03098333    0.03194065
     atom    4 type  1   force =    -0.01769577    0.02282624    0.03270335
     atom    5 type  1   force =     0.04201050   -0.04134110   -0.04335233
     atom    6 type  1   force =    -0.04829431    0.05263052    0.05870213
     atom    7 type  1   force =     0.01449763    0.01662541   -0.01910285
     atom    8 type  1   force =     0.01377026    0.01393459   -0.01406314
     atom    9 type  1   force =     0.03317535    0.03371431   -0.03373950
     atom   10 type  1   force =    -0.01544451   -0.01657989   -0.01683996
     atom   11 type  1   force =    -0.01132711   -0.01134075   -0.01136042
     atom   12 type  1   force =    -0.03492492   -0.03543579   -0.03537355
     atom   13 type  1   force =    -0.02290727    0.02290193    0.02156621
     atom   14 type  1   force =    -0.01985816    0.01930079    0.01960298
     atom   15 type  1   force =     0.02386122   -0.02372422   -0.02457133
     atom   16 type  1   force =     0.02410948   -0.02388575    0.00457610
     atom   17 type  1   force =     0.01879695   -0.01970702    0.01973843
     atom   18 type  1   force =    -0.01998798    0.02088516   -0.02396922
     atom   19 type  1   force =     0.02121725    0.01468455   -0.02355787
     atom   20 type  1   force =     0.02356022    0.02421118   -0.02476439
     atom   21 type  1   force =    -0.02660038   -0.02834011    0.02697892
     atom   22 type  1   force =    -0.02174756   -0.01931078   -0.02135442
     atom   23 type  1   force =    -0.02373876   -0.02354210   -0.02414711
     atom   24 type  1   force =     0.02548608    0.02683757    0.02698600
     atom   25 type  1   force =     0.01141758   -0.00689636    0.01780897
     atom   26 type  1   force =     0.01359279   -0.01353001    0.01165948
     atom   27 type  1   force =     0.03308812   -0.03389063    0.03199756
     atom   28 type  1   force =    -0.01570763    0.01802887    0.01803742
     atom   29 type  1   force =    -0.01503424    0.01504451    0.01503727
     atom   30 type  1   force =    -0.03173551    0.03222607    0.03221529
     atom   31 type  1   force =     0.00623834    0.03012712   -0.01251832
     atom   32 type  1   force =     0.00745169    0.00703038   -0.00719507
     atom   33 type  1   force =     0.04013993    0.04136597   -0.04031940
     atom   34 type  1   force =    -0.02744851   -0.01000328   -0.01529902
     atom   35 type  1   force =    -0.00892174   -0.00895450   -0.00906673
     atom   36 type  1   force =    -0.03859426   -0.04080533   -0.04001620
     atom   37 type  1   force =    -0.07723997    0.10404569    0.01057228
     atom   38 type  1   force =    -0.08089044    0.09747319    0.02080287
     atom   39 type  1   force =     0.09125122   -0.11703885   -0.00289863
     atom   40 type  1   force =     0.01805452   -0.01799589    0.02138574
     atom   41 type  1   force =     0.02015454   -0.01948557    0.01999678
     atom   42 type  1   force =    -0.02372951    0.02336303   -0.02235263
     atom   43 type  1   force =     0.02058500    0.02162159   -0.02210494
     atom   44 type  1   force =     0.02162115    0.02135920   -0.02076977
     atom   45 type  1   force =    -0.02455538   -0.02447441    0.02493728
     atom   46 type  1   force =    -0.02269692   -0.01903029   -0.02038602
     atom   47 type  1   force =    -0.02198659   -0.02184640   -0.02219119
     atom   48 type  1   force =     0.02575632    0.02610494    0.02686022
     atom   49 type  2   force =     0.04110054   -0.06516898    0.02406080

     Total force =     0.380559     Total SCF correction =     0.000567
     Energy error            =      9.9E-02 Ry
     Gradient error          =      1.2E-01 Ry/Bohr

     number of scf cycles    =   3
     number of bfgs steps    =   1

     energy             old  =    -882.6279181213 Ry
     energy             new  =    -882.7264741953 Ry

     CASE: energy            _new < energy            _old

     new trust radius        =       0.1929537522 bohr
     new conv_thr            =       0.0000010000 Ry


ATOMIC_POSITIONS (angstrom)
C             6.1812185688        4.5906843156        6.1857344216
C             7.7117685374        3.0581336591        7.7114222345
C             7.0072061822        3.7653373055        7.0084379397
C             4.5861777316        6.1955645290        6.2036908267
C             3.0616672700        7.7089194548        7.7061101576
C             3.7751737227        7.0020769264        7.0072482149
C             6.1834782931        6.1851423710        4.5888018354
C             7.7115337788        7.7116866647        3.0581971488
C             7.0081054699        7.0085954616        3.7643192844
C             4.5879397359        4.5854396501        4.5859981666
C             3.0581490648        3.0581910351        3.0581747504
C             3.7620214701        3.7613674078        3.7614661565
C             6.1903807860        4.5802726747        4.5789439871
C             7.7742582206        3.0023088453        3.0026387245
C             7.0638693158        3.7101760045        3.7103207600
C             4.5818006059        6.1899677978        4.5655018678
C             3.0023019788        7.7749649165        3.0030476122
C             3.7127482412        7.0621454734        3.7107178986
C             4.5782718028        4.5717243582        6.1916194336
C             3.0024154301        3.0030381140        7.7736289003
C             3.7106567097        3.7091197444        7.0635941126
C             6.1954330164        6.1994110859        6.1971120057
C             7.7735950858        7.7747337286        7.7742210760
C             7.0647801213        7.0670450471        7.0661246282
C             0.6804445626       10.0946765936        0.6886354486
C             2.2166209908        8.5606201451        2.2145309227
C             1.5087468601        9.2640365995        1.5084494795
C            10.0876734127        0.6847817137        0.6856632576
C             8.5613598906        2.2146128761        2.2155868450
C             9.2644136122        1.5090723365        1.5100943801
C             0.6775442362        0.6989734413       10.0898823960
C             2.2130066386        2.2124459881        8.5632232045
C             1.5112102601        1.5112903194        9.2625617521
C            10.0807889521       10.0929461588       10.0895100600
C             8.5636869741        8.5637266676        8.5635305510
C             9.2662776918        9.2641011669        9.2640714469
C             0.6406433989       10.1591581973       10.0618798193
C             2.2926098883        8.4912349522        8.4169471750
C             1.5700677510        9.1785974880        9.2752829050
C            10.0780143843        0.6958471196       10.0790203933
C             8.4982982860        2.2693429632        8.4981509997
C             9.2072412990        1.5613051829        9.2080812511
C            10.0788937263       10.0804184474        0.6951210097
C             8.4983156443        8.4990865169        2.2694412935
C             9.2085132621        9.2082413082        1.5628012832
C             0.6912687493        0.6942326051        0.6924034135
C             2.2702462738        2.2694017031        2.2700609027
C             1.5622226571        1.5612159965        1.5619286533
H             1.7639394581        8.7015869423       10.2350690126



     Writing config-only to output data dir ./pwscf.save/
     NEW-OLD atomic charge density approx. for the potential

     Check: negative core charge=   -0.000004

     negative rho (up, down):  1.636E-06 1.636E-06
     Generating pointlists ...

     total cpu time spent up to now is       86.9 secs

     Self-consistent Calculation

     iteration #  1     ecut=    50.00 Ry     beta= 0.30
     Davidson diagonalization with overlap
     ethr =  1.00E-06,  avg # of iterations = 11.0

     negative rho (up, down):  1.888E-06 1.888E-06

     total cpu time spent up to now is       91.9 secs

     total energy              =    -882.74981097 Ry
     estimated scf accuracy    <       0.11524057 Ry

     total magnetization       =     0.00 Bohr mag/cell
     absolute magnetization    =     0.00 Bohr mag/cell

     iteration #  2     ecut=    50.00 Ry     beta= 0.30
     Davidson diagonalization with overlap
     ethr =  5.97E-05,  avg # of iterations =  2.0

     negative rho (up, down):  2.064E-06 2.064E-06

     total cpu time spent up to now is       93.9 secs

     total energy              =    -882.76839971 Ry
     estimated scf accuracy    <       0.02563697 Ry

     total magnetization       =    -0.00 Bohr mag/cell
     absolute magnetization    =     0.00 Bohr mag/cell

     iteration #  3     ecut=    50.00 Ry     beta= 0.30
     Davidson diagonalization with overlap
     ethr =  1.33E-05,  avg # of iterations =  2.0

     negative rho (up, down):  2.226E-06 2.226E-06

     total cpu time spent up to now is       95.8 secs

     total energy              =    -882.76920151 Ry
     estimated scf accuracy    <       0.00513060 Ry

     total magnetization       =     0.00 Bohr mag/cell
     absolute magnetization    =     0.00 Bohr mag/cell

     iteration #  4     ecut=    50.00 Ry     beta= 0.30
     Davidson diagonalization with overlap
     ethr =  2.66E-06,  avg # of iterations =  2.0

     negative rho (up, down):  2.210E-06 2.210E-06

     total cpu time spent up to now is       97.9 secs

     total energy              =    -882.76961090 Ry
     estimated scf accuracy    <       0.00322315 Ry

     total magnetization       =     0.00 Bohr mag/cell
     absolute magnetization    =     0.00 Bohr mag/cell

     iteration #  5     ecut=    50.00 Ry     beta= 0.30
     Davidson diagonalization with overlap
     ethr =  1.67E-06,  avg # of iterations =  2.0

     negative rho (up, down):  2.240E-06 2.240E-06

     total cpu time spent up to now is       99.9 secs

     total energy              =    -882.76980728 Ry
     estimated scf accuracy    <       0.00060980 Ry

     total magnetization       =     0.00 Bohr mag/cell
     absolute magnetization    =     0.00 Bohr mag/cell

     iteration #  6     ecut=    50.00 Ry     beta= 0.30
     Davidson diagonalization with overlap
     ethr =  3.16E-07,  avg # of iterations =  2.0

     negative rho (up, down):  2.229E-06 2.229E-06

     total cpu time spent up to now is      101.9 secs

     total energy              =    -882.76991277 Ry
     estimated scf accuracy    <       0.00010709 Ry

     total magnetization       =     0.00 Bohr mag/cell
     absolute magnetization    =     0.00 Bohr mag/cell

     iteration #  7     ecut=    50.00 Ry     beta= 0.30
     Davidson diagonalization with overlap
     ethr =  5.55E-08,  avg # of iterations =  4.0

     negative rho (up, down):  2.177E-06 2.177E-06

     total cpu time spent up to now is      104.0 secs

     total energy              =    -882.76991883 Ry
     estimated scf accuracy    <       0.00002160 Ry

     total magnetization       =     0.00 Bohr mag/cell
     absolute magnetization    =     0.00 Bohr mag/cell

     iteration #  8     ecut=    50.00 Ry     beta= 0.30
     Davidson diagonalization with overlap
     ethr =  1.12E-08,  avg # of iterations =  3.0

     negative rho (up, down):  2.145E-06 2.145E-06

     total cpu time spent up to now is      106.0 secs

     total energy              =    -882.76992330 Ry
     estimated scf accuracy    <       0.00000419 Ry

     total magnetization       =     0.00 Bohr mag/cell
     absolute magnetization    =     0.00 Bohr mag/cell

     iteration #  9     ecut=    50.00 Ry     beta= 0.30
     Davidson diagonalization with overlap
     ethr =  2.17E-09,  avg # of iterations =  2.0

     negative rho (up, down):  2.108E-06 2.108E-06

     Magnetic moment per site  (integrated on atomic sphere of radius R)
     atom   1 (R=0.041)  charge=  0.8322  magn=  0.0000
     atom   2 (R=0.041)  charge=  0.8853  magn= -0.0000
     atom   3 (R=0.041)  charge=  0.8815  magn=  0.0000
     atom   4 (R=0.041)  charge=  0.8324  magn=  0.0000
     atom   5 (R=0.041)  charge=  0.9000  magn=  0.0000
     atom   6 (R=0.041)  charge=  0.8884  magn= -0.0000
     atom   7 (R=0.041)  charge=  0.8323  magn=  0.0000
     atom   8 (R=0.041)  charge=  0.8858  magn=  0.0000
     atom   9 (R=0.041)  charge=  0.8823  magn= -0.0000
     atom  10 (R=0.041)  charge=  0.8318  magn=  0.0000
     atom  11 (R=0.041)  charge=  0.8848  magn=  0.0000
     atom  12 (R=0.041)  charge=  0.8827  magn= -0.0000
     atom  13 (R=0.041)  charge=  0.8180  magn= -0.0000
     atom  14 (R=0.041)  charge=  0.8831  magn= -0.0000
     atom  15 (R=0.041)  charge=  0.8616  magn=  0.0000
     atom  16 (R=0.041)  charge=  0.8175  magn= -0.0000
     atom  17 (R=0.041)  charge=  0.8827  magn= -0.0000
     atom  18 (R=0.041)  charge=  0.8603  magn=  0.0000
     atom  19 (R=0.041)  charge=  0.8170  magn= -0.0000
     atom  20 (R=0.041)  charge=  0.8825  magn=  0.0000
     atom  21 (R=0.041)  charge=  0.8628  magn= -0.0000
     atom  22 (R=0.041)  charge=  0.8161  magn= -0.0000
     atom  23 (R=0.041)  charge=  0.8810  magn= -0.0000
     atom  24 (R=0.041)  charge=  0.8639  magn=  0.0000
     atom  25 (R=0.041)  charge=  0.8335  magn=  0.0000
     atom  26 (R=0.041)  charge=  0.8856  magn=  0.0000
     atom  27 (R=0.041)  charge=  0.8786  magn= -0.0000
     atom  28 (R=0.041)  charge=  0.8322  magn=  0.0000
     atom  29 (R=0.041)  charge=  0.8869  magn=  0.0000
     atom  30 (R=0.041)  charge=  0.8805  magn= -0.0000
     atom  31 (R=0.041)  charge=  0.8424  magn=  0.0000
     atom  32 (R=0.041)  charge=  0.8890  magn=  0.0000
     atom  33 (R=0.041)  charge=  0.8838  magn= -0.0000
     atom  34 (R=0.041)  charge=  0.8392  magn=  0.0000
     atom  35 (R=0.041)  charge=  0.8886  magn=  0.0000
     atom  36 (R=0.041)  charge=  0.8854  magn= -0.0000
     atom  37 (R=0.041)  charge=  0.8230  magn= -0.0000
     atom  38 (R=0.041)  charge=  0.8659  magn= -0.0000
     atom  39 (R=0.041)  charge=  0.8595  magn=  0.0000
     atom  40 (R=0.041)  charge=  0.8189  magn= -0.0000
     atom  41 (R=0.041)  charge=  0.8828  magn=  0.0000
     atom  42 (R=0.041)  charge=  0.8628  magn= -0.0000
     atom  43 (R=0.041)  charge=  0.8180  magn= -0.0000
     atom  44 (R=0.041)  charge=  0.8828  magn= -0.0000
     atom  45 (R=0.041)  charge=  0.8630  magn=  0.0000
     atom  46 (R=0.041)  charge=  0.8166  magn= -0.0000
     atom  47 (R=0.041)  charge=  0.8830  magn= -0.0000
     atom  48 (R=0.041)  charge=  0.8642  magn=  0.0000
     atom  49 (R=0.041)  charge=  0.4923  magn= -0.0000

     total cpu time spent up to now is      108.0 secs

     End of self-consistent calculation

 ------ SPIN UP ------------


          k = 0.0000 0.0000 0.0000 ( 26858 PWs)   bands (ev):

   -22.0441 -21.7475 -17.7455 -17.6134 -17.5633 -17.4243 -17.3718 -17.3427
   -17.1445 -16.9852 -16.9019 -16.8945 -16.8538 -16.2837 -16.2310 -16.1953
   -16.0410 -15.8733 -15.8202 -15.7314 -15.5524 -14.8241 -14.7773 -14.7553
   -14.1967 -14.0193 -13.9803 -13.6393 -13.1142 -12.7674 -12.7478 -12.7371
   -12.3719 -12.2028 -12.1356 -12.1164 -11.3032 -11.1744 -11.1273 -11.1017
   -10.7574 -10.2853 -10.1006  -9.8564  -9.8449  -9.6832  -9.6597  -9.5485
    -9.5331  -9.4472  -9.3985  -9.3729  -7.7970  -6.9639  -6.9310  -6.7252
    -6.6026  -6.5627  -6.4375  -6.3804  -6.2924  -6.0950  -5.9917  -5.9346
    -5.8394  -5.7993  -5.7122  -5.6560  -5.6461  -5.6202  -5.5686  -5.5561
    -5.5297  -5.4920  -5.0865  -4.9982  -4.9771  -4.6290  -4.5880  -4.5718
    -4.5169  -3.8368  -3.8236  -3.6498  -3.4752  -3.4593  -3.3707  -3.2901
    -3.2802  -3.1858  -3.0879  -3.0788  -3.0357  -2.3141  -2.2327  -2.2253
    -0.9917  -0.2896  -0.2197   0.1337   0.5766   0.6968   0.7838   1.0313
     1.1836   1.2535   1.2666   1.3708   1.3882   2.0355   2.2044   2.2802
     2.2994   2.3582   2.4090   2.4838

 ------ SPIN DOWN ----------


          k = 0.0000 0.0000 0.0000 ( 26858 PWs)   bands (ev):

   -22.0441 -21.7475 -17.7455 -17.6134 -17.5633 -17.4243 -17.3718 -17.3427
   -17.1445 -16.9852 -16.9019 -16.8945 -16.8538 -16.2837 -16.2310 -16.1953
   -16.0410 -15.8733 -15.8202 -15.7314 -15.5524 -14.8241 -14.7773 -14.7553
   -14.1967 -14.0193 -13.9803 -13.6393 -13.1142 -12.7674 -12.7478 -12.7371
   -12.3719 -12.2028 -12.1356 -12.1164 -11.3032 -11.1744 -11.1273 -11.1017
   -10.7574 -10.2853 -10.1006  -9.8564  -9.8449  -9.6832  -9.6597  -9.5485
    -9.5332  -9.4472  -9.3985  -9.3729  -7.7970  -6.9639  -6.9310  -6.7252
    -6.6026  -6.5627  -6.4375  -6.3804  -6.2924  -6.0950  -5.9917  -5.9346
    -5.8394  -5.7993  -5.7122  -5.6560  -5.6461  -5.6202  -5.5686  -5.5561
    -5.5297  -5.4920  -5.0865  -4.9982  -4.9771  -4.6290  -4.5880  -4.5718
    -4.5169  -3.8368  -3.8236  -3.6498  -3.4752  -3.4593  -3.3707  -3.2901
    -3.2802  -3.1858  -3.0879  -3.0788  -3.0357  -2.3141  -2.2327  -2.2253
    -0.9917  -0.2896  -0.2197   0.1337   0.5766   0.6968   0.7838   1.0313
     1.1836   1.2535   1.2666   1.3708   1.3882   2.0355   2.2044   2.2802
     2.2994   2.3582   2.4090   2.4838

     the spin up/dw Fermi energies are    -0.9917   -0.9917 ev

!    total energy              =    -882.76992417 Ry
     estimated scf accuracy    <       0.00000037 Ry
     smearing contrib. (-TS)   =      -0.00005642 Ry
     internal energy E=F+TS    =    -882.76986775 Ry

     The total energy is F=E-TS. E is the sum of the following terms:
     one-electron contribution =   -1218.22246757 Ry
     hartree contribution      =     653.34602682 Ry
     xc contribution           =    -219.26362875 Ry
     ewald contribution        =     197.42962097 Ry
     one-center paw contrib.   =    -296.05941923 Ry

     total magnetization       =    -0.00 Bohr mag/cell
     absolute magnetization    =     0.00 Bohr mag/cell

     convergence has been achieved in   9 iterations

     negative rho (up, down):  2.108E-06 2.108E-06

     Forces acting on atoms (cartesian axes, Ry/au):

     atom    1 type  1   force =     0.00975402   -0.00930049    0.01110032
     atom    2 type  1   force =     0.01325299   -0.01334581    0.01296660
     atom    3 type  1   force =    -0.01486457    0.01458368   -0.01395820
     atom    4 type  1   force =    -0.00337077    0.00275320    0.00459366
     atom    5 type  1   force =    -0.04649497    0.04795036    0.03931370
     atom    6 type  1   force =     0.05917218   -0.05527060   -0.04999894
     atom    7 type  1   force =     0.01008856    0.01166908   -0.01009292
     atom    8 type  1   force =     0.01702473    0.01725226   -0.01740179
     atom    9 type  1   force =    -0.01731959   -0.01758432    0.01735523
     atom   10 type  1   force =    -0.01228054   -0.01014429   -0.01034669
     atom   11 type  1   force =    -0.02132488   -0.02135160   -0.02151998
     atom   12 type  1   force =     0.02225883    0.02090527    0.02150625
     atom   13 type  1   force =     0.03499148   -0.03381632   -0.03318942
     atom   14 type  1   force =    -0.00339471    0.00305967    0.00321230
     atom   15 type  1   force =    -0.04853639    0.04836216    0.04762611
     atom   16 type  1   force =    -0.03265824    0.03187734   -0.03105294
     atom   17 type  1   force =     0.00603992   -0.00668981    0.00666494
     atom   18 type  1   force =     0.04497445   -0.04447000    0.03887206
     atom   19 type  1   force =    -0.03502150   -0.03029260    0.03369168
     atom   20 type  1   force =    -0.00455640   -0.00411598    0.00377743
     atom   21 type  1   force =     0.05193759    0.04783284   -0.05200054
     atom   22 type  1   force =     0.02963508    0.03379446    0.03338892
     atom   23 type  1   force =     0.00335437    0.00369405    0.00323394
     atom   24 type  1   force =    -0.05059498   -0.05134633   -0.05134396
     atom   25 type  1   force =     0.00374604    0.00122553    0.00049826
     atom   26 type  1   force =     0.01437959   -0.01443123    0.01414010
     atom   27 type  1   force =    -0.01797763    0.01820142   -0.02504445
     atom   28 type  1   force =    -0.01271059    0.01172918    0.01200099
     atom   29 type  1   force =    -0.01404250    0.01407686    0.01413533
     atom   30 type  1   force =     0.01523190   -0.01494293   -0.01511374
     atom   31 type  1   force =     0.00378113    0.03682192   -0.01135508
     atom   32 type  1   force =     0.03298820    0.03371174   -0.03283120
     atom   33 type  1   force =    -0.03043686   -0.02737150    0.02948446
     atom   34 type  1   force =    -0.02599023    0.00023511   -0.00964513
     atom   35 type  1   force =    -0.03187873   -0.03155755   -0.03159307
     atom   36 type  1   force =     0.02813693    0.02675452    0.02651652
     atom   37 type  1   force =     0.04896352   -0.05058383   -0.04640477
     atom   38 type  1   force =    -0.05034553    0.06536691   -0.00203804
     atom   39 type  1   force =     0.00115803   -0.01912061    0.06909060
     atom   40 type  1   force =    -0.05141187    0.04975802   -0.03140518
     atom   41 type  1   force =     0.00402870   -0.00359081    0.00366236
     atom   42 type  1   force =     0.04507340   -0.04491687    0.04812062
     atom   43 type  1   force =    -0.04071733   -0.03510493    0.03566548
     atom   44 type  1   force =     0.00180831    0.00173114   -0.00154155
[...]

     total cpu time spent up to now is     1876.0 secs

     total energy              =    -882.89269239 Ry
     estimated scf accuracy    <       0.00278513 Ry

     total magnetization       =    -0.00 Bohr mag/cell
     absolute magnetization    =     0.01 Bohr mag/cell

     iteration #  7     ecut=    50.00 Ry     beta= 0.30
     Davidson diagonalization with overlap
     ethr =  1.44E-06,  avg # of iterations =  2.0

     negative rho (up, down):  1.765E-06 1.766E-06

     total cpu time spent up to now is     1878.0 secs

     total energy              =    -882.89317735 Ry
     estimated scf accuracy    <       0.00042996 Ry

     total magnetization       =    -0.00 Bohr mag/cell
     absolute magnetization    =     0.01 Bohr mag/cell

     iteration #  8     ecut=    50.00 Ry     beta= 0.30
     Davidson diagonalization with overlap
     ethr =  2.23E-07,  avg # of iterations =  4.0

     negative rho (up, down):  1.705E-06 1.705E-06

     total cpu time spent up to now is     1880.2 secs

     total energy              =    -882.89327747 Ry
     estimated scf accuracy    <       0.00008505 Ry

     total magnetization       =     0.00 Bohr mag/cell
     absolute magnetization    =     0.01 Bohr mag/cell

     iteration #  9     ecut=    50.00 Ry     beta= 0.30
     Davidson diagonalization with overlap
     ethr =  4.41E-08,  avg # of iterations =  2.0

     negative rho (up, down):  1.699E-06 1.699E-06

     total cpu time spent up to now is     1882.3 secs

     total energy              =    -882.89332499 Ry
     estimated scf accuracy    <       0.00002380 Ry

     total magnetization       =     0.00 Bohr mag/cell
     absolute magnetization    =     0.00 Bohr mag/cell

     iteration # 10     ecut=    50.00 Ry     beta= 0.30
     Davidson diagonalization with overlap
     ethr =  1.23E-08,  avg # of iterations =  2.0

     negative rho (up, down):  1.672E-06 1.672E-06

     total cpu time spent up to now is     1884.2 secs

     total energy              =    -882.89333397 Ry
     estimated scf accuracy    <       0.00000239 Ry

     total magnetization       =     0.00 Bohr mag/cell
     absolute magnetization    =     0.00 Bohr mag/cell

     iteration # 11     ecut=    50.00 Ry     beta= 0.30
     Davidson diagonalization with overlap
     ethr =  1.24E-09,  avg # of iterations =  4.0

     negative rho (up, down):  1.657E-06 1.657E-06

     total cpu time spent up to now is     1886.5 secs

     total energy              =    -882.89333918 Ry
     estimated scf accuracy    <       0.00000060 Ry

     total magnetization       =     0.00 Bohr mag/cell
     absolute magnetization    =     0.00 Bohr mag/cell

     iteration # 12     ecut=    50.00 Ry     beta= 0.30
     Davidson diagonalization with overlap
     ethr =  3.09E-10,  avg # of iterations =  2.0

     negative rho (up, down):  1.649E-06 1.650E-06

     total cpu time spent up to now is     1888.5 secs

     total energy              =    -882.89334205 Ry
     estimated scf accuracy    <       0.00000009 Ry

     total magnetization       =     0.00 Bohr mag/cell
     absolute magnetization    =     0.00 Bohr mag/cell

     iteration # 13     ecut=    50.00 Ry     beta= 0.30
     Davidson diagonalization with overlap
     ethr =  4.89E-11,  avg # of iterations =  4.0

     negative rho (up, down):  1.643E-06 1.644E-06

     total cpu time spent up to now is     1890.7 secs

     total energy              =    -882.89334301 Ry
     estimated scf accuracy    <       0.00000002 Ry

     total magnetization       =    -0.00 Bohr mag/cell
     absolute magnetization    =     0.00 Bohr mag/cell

     iteration # 14     ecut=    50.00 Ry     beta= 0.30
     Davidson diagonalization with overlap
     ethr =  9.83E-12,  avg # of iterations =  3.0

     negative rho (up, down):  1.631E-06 1.631E-06

     Magnetic moment per site  (integrated on atomic sphere of radius R)
     atom   1 (R=0.040)  charge=  0.7622  magn=  0.0000
     atom   2 (R=0.040)  charge=  0.8088  magn=  0.0000
     atom   3 (R=0.040)  charge=  0.8044  magn= -0.0000
     atom   4 (R=0.040)  charge=  0.7590  magn= -0.0000
     atom   5 (R=0.040)  charge=  0.8096  magn= -0.0000
     atom   6 (R=0.040)  charge=  0.8003  magn=  0.0000
     atom   7 (R=0.040)  charge=  0.7621  magn=  0.0000
     atom   8 (R=0.040)  charge=  0.8110  magn= -0.0000
     atom   9 (R=0.040)  charge=  0.8065  magn=  0.0000
     atom  10 (R=0.040)  charge=  0.7605  magn=  0.0000
     atom  11 (R=0.040)  charge=  0.8092  magn= -0.0000
     atom  12 (R=0.040)  charge=  0.8049  magn=  0.0000
     atom  13 (R=0.040)  charge=  0.7610  magn= -0.0000
     atom  14 (R=0.040)  charge=  0.8100  magn=  0.0000
     atom  15 (R=0.040)  charge=  0.8047  magn= -0.0000
     atom  16 (R=0.040)  charge=  0.7615  magn= -0.0000
     atom  17 (R=0.040)  charge=  0.8115  magn= -0.0000
     atom  18 (R=0.040)  charge=  0.8067  magn=  0.0000
     atom  19 (R=0.040)  charge=  0.7588  magn= -0.0000
     atom  20 (R=0.040)  charge=  0.8106  magn=  0.0000
     atom  21 (R=0.040)  charge=  0.8076  magn= -0.0000
     atom  22 (R=0.040)  charge=  0.7623  magn= -0.0000
     atom  23 (R=0.040)  charge=  0.8115  magn= -0.0000
     atom  24 (R=0.040)  charge=  0.8048  magn=  0.0000
     atom  25 (R=0.040)  charge=  0.7648  magn=  0.0000
     atom  26 (R=0.040)  charge=  0.8107  magn= -0.0000
     atom  27 (R=0.040)  charge=  0.8056  magn=  0.0000
     atom  28 (R=0.040)  charge=  0.7607  magn= -0.0000
     atom  29 (R=0.040)  charge=  0.8093  magn= -0.0000
     atom  30 (R=0.040)  charge=  0.8050  magn=  0.0000
     atom  31 (R=0.040)  charge=  0.7598  magn=  0.0000
     atom  32 (R=0.040)  charge=  0.8114  magn=  0.0000
     atom  33 (R=0.040)  charge=  0.8065  magn= -0.0000
     atom  34 (R=0.040)  charge=  0.7650  magn=  0.0000
     atom  35 (R=0.040)  charge=  0.8109  magn=  0.0000
     atom  36 (R=0.040)  charge=  0.8063  magn= -0.0000
     atom  37 (R=0.040)  charge=  0.7569  magn= -0.0000
     atom  38 (R=0.040)  charge=  0.7950  magn=  0.0000
     atom  39 (R=0.040)  charge=  0.7905  magn= -0.0000
     atom  40 (R=0.040)  charge=  0.7601  magn=  0.0000
     atom  41 (R=0.040)  charge=  0.8086  magn= -0.0000
     atom  42 (R=0.040)  charge=  0.8045  magn=  0.0000
     atom  43 (R=0.040)  charge=  0.7628  magn= -0.0000
     atom  44 (R=0.040)  charge=  0.8116  magn=  0.0000
     atom  45 (R=0.040)  charge=  0.8065  magn= -0.0000
     atom  46 (R=0.040)  charge=  0.7607  magn=  0.0000
     atom  47 (R=0.040)  charge=  0.8095  magn=  0.0000
     atom  48 (R=0.040)  charge=  0.8046  magn= -0.0000
     atom  49 (R=0.040)  charge=  0.4523  magn=  0.0000

     total cpu time spent up to now is     1892.8 secs

     End of self-consistent calculation

 ------ SPIN UP ------------


          k = 0.0000 0.0000 0.0000 ( 26858 PWs)   bands (ev):

   -21.5150 -21.4025 -17.6474 -17.5315 -17.5178 -17.4089 -17.2960 -17.2086
   -17.0423 -16.9365 -16.9269 -16.8597 -16.8283 -16.1598 -16.0889 -16.0643
   -15.9877 -15.9099 -15.8973 -15.6882 -15.5604 -14.6664 -14.6287 -14.6011
   -14.2434 -14.1372 -14.0892 -13.6310 -13.2046 -12.8343 -12.8200 -12.6715
   -12.2202 -12.1238 -12.0935 -12.0792 -11.4333 -11.0763 -11.0756 -11.0153
   -10.7274 -10.3341  -9.9500  -9.9109  -9.8219  -9.5944  -9.4683  -9.4457
    -9.4399  -9.3996  -9.3161  -9.1069  -8.2179  -6.9870  -6.9610  -6.7383
    -6.6261  -6.5947  -6.4302  -6.3601  -6.2903  -6.1665  -5.9450  -5.9141
    -5.7938  -5.7089  -5.7056  -5.6451  -5.5887  -5.5810  -5.5525  -5.5228
    -5.4353  -5.4048  -5.0590  -4.9431  -4.8938  -4.7794  -4.5138  -4.4956
    -4.3411  -3.8266  -3.7914  -3.7050  -3.4937  -3.4434  -3.3983  -3.2704
    -3.1836  -3.0915  -3.0358  -2.9849  -2.9557  -2.2880  -2.1117  -2.1066
    -1.3731  -0.2971  -0.2955  -0.0453   0.4745   0.5426   0.7040   0.8982
     1.1151   1.1182   1.1383   1.2920   1.3817   1.8930   2.1456   2.1915
     2.3194   2.3593   2.3756   2.4398

 ------ SPIN DOWN ----------


          k = 0.0000 0.0000 0.0000 ( 26858 PWs)   bands (ev):

   -21.5150 -21.4025 -17.6474 -17.5315 -17.5178 -17.4089 -17.2960 -17.2086
   -17.0423 -16.9365 -16.9269 -16.8597 -16.8283 -16.1598 -16.0889 -16.0643
   -15.9878 -15.9099 -15.8973 -15.6882 -15.5604 -14.6664 -14.6287 -14.6012
   -14.2434 -14.1372 -14.0892 -13.6310 -13.2046 -12.8343 -12.8200 -12.6715
   -12.2202 -12.1238 -12.0935 -12.0792 -11.4333 -11.0763 -11.0756 -11.0153
   -10.7274 -10.3341  -9.9500  -9.9109  -9.8219  -9.5944  -9.4683  -9.4457
    -9.4400  -9.3996  -9.3161  -9.1069  -8.2179  -6.9869  -6.9610  -6.7383
    -6.6261  -6.5947  -6.4302  -6.3601  -6.2903  -6.1665  -5.9450  -5.9141
    -5.7938  -5.7089  -5.7056  -5.6451  -5.5887  -5.5810  -5.5526  -5.5228
    -5.4353  -5.4048  -5.0590  -4.9431  -4.8938  -4.7794  -4.5138  -4.4956
    -4.3411  -3.8266  -3.7914  -3.7050  -3.4937  -3.4434  -3.3983  -3.2704
    -3.1836  -3.0915  -3.0358  -2.9849  -2.9557  -2.2880  -2.1117  -2.1066
    -1.3730  -0.2971  -0.2955  -0.0452   0.4745   0.5426   0.7040   0.8982
     1.1151   1.1182   1.1383   1.2920   1.3817   1.8930   2.1456   2.1915
     2.3194   2.3593   2.3756   2.4398

     the spin up/dw Fermi energies are    -1.3731   -1.3730 ev

!    total energy              =    -882.89334346 Ry
     estimated scf accuracy    <          4.8E-09 Ry
     smearing contrib. (-TS)   =      -0.00005642 Ry
     internal energy E=F+TS    =    -882.89328704 Ry

     The total energy is F=E-TS. E is the sum of the following terms:
     one-electron contribution =   -1205.98632917 Ry
     hartree contribution      =     647.23976666 Ry
     xc contribution           =    -218.82243716 Ry
     ewald contribution        =     190.71422452 Ry
     one-center paw contrib.   =    -296.03851188 Ry

     total magnetization       =     0.00 Bohr mag/cell
     absolute magnetization    =     0.00 Bohr mag/cell

     convergence has been achieved in  14 iterations

     negative rho (up, down):  1.631E-06 1.631E-06

     Forces acting on atoms (cartesian axes, Ry/au):

     atom    1 type  1   force =     0.00007390    0.00001578    0.00017696
     atom    2 type  1   force =     0.00008483    0.00015374   -0.00011036
     atom    3 type  1   force =     0.00011628    0.00002255    0.00020988
     atom    4 type  1   force =     0.00007336   -0.00027843    0.00009521
     atom    5 type  1   force =     0.00000680    0.00000093   -0.00001417
     atom    6 type  1   force =    -0.00042352   -0.00003546    0.00005546
     atom    7 type  1   force =     0.00007874   -0.00011395    0.00009763
     atom    8 type  1   force =    -0.00001091   -0.00035279   -0.00012936
     atom    9 type  1   force =    -0.00020700    0.00009869    0.00019289
     atom   10 type  1   force =    -0.00000790   -0.00015496   -0.00009717
     atom   11 type  1   force =    -0.00017594    0.00007438   -0.00051291
     atom   12 type  1   force =    -0.00012600    0.00012707    0.00000716
     atom   13 type  1   force =     0.00018775   -0.00030345    0.00003774
     atom   14 type  1   force =     0.00035341   -0.00031477   -0.00011096
     atom   15 type  1   force =     0.00009838   -0.00008491   -0.00035382
     atom   16 type  1   force =     0.00023845   -0.00020334   -0.00011673
     atom   17 type  1   force =     0.00029357    0.00004496    0.00018026
     atom   18 type  1   force =     0.00007601    0.00013081   -0.00000199
     atom   19 type  1   force =    -0.00014387    0.00043366    0.00006849
     atom   20 type  1   force =    -0.00046826    0.00024691    0.00001467
     atom   21 type  1   force =     0.00002019    0.00004682   -0.00005305
     atom   22 type  1   force =    -0.00004528    0.00012848    0.00007509
     atom   23 type  1   force =     0.00009958    0.00027753   -0.00028351
     atom   24 type  1   force =     0.00031959    0.00015486   -0.00001818
     atom   25 type  1   force =    -0.00004747    0.00012003    0.00004733
     atom   26 type  1   force =    -0.00005996    0.00005078   -0.00000475
     atom   27 type  1   force =     0.00013082   -0.00021453   -0.00015013
     atom   28 type  1   force =    -0.00001328   -0.00017956    0.00005877
     atom   29 type  1   force =     0.00013531   -0.00030359   -0.00011487
     atom   30 type  1   force =     0.00029704    0.00011126   -0.00018871
     atom   31 type  1   force =    -0.00012516    0.00023738    0.00019746
     atom   32 type  1   force =    -0.00013265   -0.00009043   -0.00032252
     atom   33 type  1   force =    -0.00006866   -0.00024503   -0.00017577
     atom   34 type  1   force =     0.00002161    0.00006512    0.00006465
     atom   35 type  1   force =     0.00027014    0.00017770    0.00007527
     atom   36 type  1   force =    -0.00018685    0.00010645   -0.00006596
     atom   37 type  1   force =     0.00017601    0.00022986    0.00041909
     atom   38 type  1   force =    -0.00034233   -0.00080322   -0.00059508
     atom   39 type  1   force =     0.00017393    0.00040220    0.00079240
     atom   40 type  1   force =    -0.00015629    0.00002356    0.00015411
     atom   41 type  1   force =     0.00017872   -0.00023461   -0.00003362
     atom   42 type  1   force =    -0.00021695    0.00027313    0.00082626
     atom   43 type  1   force =    -0.00020217    0.00003421    0.00011490
     atom   44 type  1   force =    -0.00006416   -0.00024566   -0.00017941
     atom   45 type  1   force =    -0.00012792    0.00022429    0.00030332
     atom   46 type  1   force =    -0.00019947    0.00026748    0.00004751
     atom   47 type  1   force =     0.00015499    0.00020513   -0.00026033
     atom   48 type  1   force =    -0.00011716   -0.00023707   -0.00022111
     atom   49 type  2   force =     0.00000976   -0.00008999   -0.00019805

     Total force =     0.002719     Total SCF correction =     0.000074
     Energy error            =      1.5E-05 Ry
     Gradient error          =      8.3E-04 Ry/Bohr

     bfgs converged in  84 scf cycles and  77 bfgs steps
     (criteria: energy <  1.0E-04 Ry, force <  1.0E-03 Ry/Bohr)

     End of BFGS Geometry Optimization

     Final energy             =    -882.8933434585 Ry

     File ./pwscf.bfgs deleted, as requested
Begin final coordinates

ATOMIC_POSITIONS (angstrom)
C             6.2110812990        4.6024772933        6.2010559599
C             7.7811043378        3.0561831235        7.7247753937
C             7.0575169386        3.7721207845        7.0263888719
C             4.5900053519        6.2996942741        6.2082869309
C             3.0591612192        7.8517487300        7.7439754066
C             3.8071508973        7.1561481219        6.9941026876
C             6.2020206589        6.2340182408        4.5930050333
C             7.7248275754        7.8138877763        3.0692049902
C             7.0224490312        7.0830875529        3.7719741732
C             4.5932062191        4.6028690587        4.5887908835
C             3.0650974992        3.0520866159        3.0272885041
C             3.7655234432        3.7709045681        3.7460155281
C             6.2170488412        4.6125548241        4.5773231190
C             7.7759374095        3.0991772472        3.0139622015
C             7.0561489371        3.7955641970        3.7356994792
C             4.5812347690        6.2243961562        4.5935417711
C             3.0200318895        7.7499972159        3.0533257240
C             3.7469381013        7.0434641471        3.7566577168
C             4.6097573972        4.5344469868        6.1899390507
C             3.0898803721        2.9796484695        7.7197350636
C             3.8061872107        3.6840936439        6.9970052035
C             6.2060113752        6.2231883875        6.2133411137
C             7.7425896319        7.7498199722        7.7762725817
C             7.0419845106        7.0426115074        7.0474398439
C             0.6826020807       10.0900007660        0.7248541301
C             2.2195214913        8.5410471041        2.2688421841
C             1.5010095478        9.2537589677        1.5628910312
C            10.1178703113        0.7567545394        0.6774919179
C             8.5779834331        2.3177769982        2.2136685468
C             9.2965741309        1.6143081984        1.4970222379
C             0.7520742072        0.6497091450       10.0490324571
C             2.3028783102        2.1864565631        8.5090317303
C             1.5929296028        1.4625690449        9.2147319454
C            10.0718197580       10.0926728830       10.1109108983
C             8.5258699813        8.5420838257        8.5767472473
C             9.2343886950        9.2555664677        9.2922028560
C             0.6843458664       10.0344609196       10.1107608897
C             2.2817515893        8.5908498138        8.5220767317
C             1.3531209372        8.8620341193        9.4329020805
C            10.1219280093        0.7083147421       10.0565340929
C             8.5844327630        2.2582170208        8.5070792869
C             9.3027987417        1.5403908048        9.2093873766
C            10.0657704788       10.1347051815        0.7277406579
C             8.5120170286        8.6169218723        2.2822439249
C             9.2208948840        9.3335906773        1.5715037695
C             0.7382672070        0.7053888404        0.6792887489
C             2.2825346381        2.2524522531        2.2255026822
C             1.5805722090        1.5365067608        1.5049027008
H             0.9001491818        7.9462735962        9.8625426433
End final coordinates



     Writing all to output data dir ./pwscf.save/

     init_run     :      2.48s CPU      2.56s WALL (       1 calls)
     electrons    :   1517.53s CPU   1589.01s WALL (      85 calls)
     update_pot   :    111.58s CPU    112.88s WALL (      83 calls)
     forces       :    115.29s CPU    120.42s WALL (      85 calls)

     Called by init_run:
     wfcinit      :      0.66s CPU      0.68s WALL (       1 calls)
     potinit      :      2.01s CPU      2.05s WALL (       2 calls)
     hinit0       :      0.51s CPU      0.52s WALL (       1 calls)

     Called by electrons:
     c_bands      :    845.41s CPU    870.98s WALL (     751 calls)
     sum_band     :    187.12s CPU    193.99s WALL (     751 calls)
     v_of_rho     :    185.07s CPU    191.18s WALL (     808 calls)
     newd         :     70.63s CPU     72.27s WALL (     808 calls)
     PAW_pot      :    272.30s CPU    273.71s WALL (     891 calls)
     mix_rho      :     18.32s CPU     19.67s WALL (     751 calls)

     Called by c_bands:
     init_us_2    :     13.05s CPU     13.32s WALL (    3342 calls)
     init_us_2:cp :     13.02s CPU     13.31s WALL (    3342 calls)
     regterg      :    823.95s CPU    848.93s WALL (    1502 calls)

     Called by *egterg:
     rdiaghg      :     52.64s CPU     52.91s WALL (    5283 calls)
     h_psi        :    470.72s CPU    492.92s WALL (    5509 calls)
     s_psi        :     81.40s CPU     81.88s WALL (    5509 calls)
     g_psi        :      1.64s CPU      1.65s WALL (    4005 calls)

     Called by h_psi:
     h_psi:calbec :     78.36s CPU     79.58s WALL (    5509 calls)
     vloc_psi     :    306.06s CPU    326.48s WALL (    5509 calls)
     add_vuspsi   :     81.97s CPU     82.49s WALL (    5509 calls)

     General routines
     calbec       :    126.07s CPU    127.98s WALL (    7857 calls)
     fft          :     81.73s CPU     91.23s WALL (   17785 calls)
     ffts         :      3.74s CPU      4.28s WALL (    3118 calls)
     fftw         :    321.62s CPU    343.05s WALL (  508758 calls)
     interpolate  :     10.42s CPU     11.59s WALL (    1616 calls)

     Parallel routines

     PWSCF        :  30m 5.46s CPU  31m36.18s WALL


   This run was terminated on:   2:56:38  25May2025            

=------------------------------------------------------------------------------=
   JOB DONE.
=------------------------------------------------------------------------------=
