ITEM: TIMESTEP
0
ITEM: NUMBER OF ATOMS
49
ITEM: BOX BOUNDS pp pp pp
0.0000000000000000e+00 1.1000000000000000e+01
0.0000000000000000e+00 1.1002000000000001e+01
0.0000000000000000e+00 1.1000000000000000e+01
ITEM: ATOMS id type x y z 
10 1 4.603 4.603 4.603 
11 1 3.085 3.085 3.085 
12 1 3.796 3.796 3.796 
46 1 0.726 0.725 0.725 
47 1 2.26 2.259 2.26 
48 1 1.551 1.55 1.55 
19 1 4.546 4.545 6.226 
20 1 3.013 3.013 7.764 
21 1 3.721 3.721 7.053 
31 1 0.668 0.667 10.103 
32 1 2.187 2.187 8.589 
33 1 1.476 1.475 9.298 
16 1 4.546 6.225 4.546 
17 1 3.013 7.765 3.013 
18 1 3.721 7.053 3.722 
25 1 0.668 10.103 0.668 
26 1 2.188 8.589 2.188 
27 1 1.476 9.298 1.476 
4 1 4.608 6.169 6.169 
5 1 3.086 7.684 7.684 
6 1 3.799 6.974 6.974 
37 1 0.729 10.046 10.046 
38 1 2.259 8.509 8.508 
39 1 1.552 9.219 9.219 
13 1 6.225 4.546 4.546 
14 1 7.764 3.013 3.013 
15 1 7.053 3.721 3.722 
28 1 10.102 0.667 0.668 
29 1 8.589 2.187 2.188 
30 1 9.298 1.475 1.476 
1 1 6.168 4.608 6.169 
2 1 7.684 3.086 7.684 
3 1 6.974 3.799 6.974 
40 1 10.045 0.728 10.046 
41 1 8.508 2.259 8.508 
42 1 9.218 1.551 9.218 
7 1 6.169 6.169 4.608 
8 1 7.684 7.684 3.086 
9 1 6.974 6.974 3.799 
43 1 10.046 10.047 0.729 
44 1 8.508 8.509 2.259 
45 1 9.219 9.219 1.552 
22 1 6.229 6.229 6.229 
23 1 7.764 7.765 7.765 
24 1 7.055 7.056 7.055 
34 1 10.108 10.108 10.107 
35 1 8.59 8.59 8.59 
36 1 9.301 9.301 9.3 
49 2 8.821 10.52 10.029 
ITEM: TIMESTEP
10
ITEM: NUMBER OF ATOMS
49
ITEM: BOX BOUNDS pp pp pp
0.0000000000000000e+00 1.1000000000000000e+01
0.0000000000000000e+00 1.1002000000000001e+01
0.0000000000000000e+00 1.1000000000000000e+01
ITEM: ATOMS id type x y z 
10 1 4.59606 4.59563 4.59485 
11 1 3.08157 3.08154 3.08171 
12 1 3.78957 3.78931 3.789 
46 1 0.730738 0.737783 0.738532 
47 1 2.27142 2.2691 2.26945 
48 1 1.56021 1.56213 1.56356 
19 1 4.53737 4.53562 6.23581 
20 1 3.00249 3.00264 7.77405 
21 1 3.70969 3.70904 7.06523 
31 1 0.704373 0.688962 10.0947 
32 1 2.19324 2.19429 8.57872 
33 1 1.48946 1.48635 9.29417 
16 1 4.53843 6.23487 4.53659 
17 1 3.00329 7.77405 3.00387 
18 1 3.71032 7.06514 3.70978 
25 1 0.669909 10.0888 0.698072 
26 1 2.19544 8.58467 2.18926 
27 1 1.47752 9.29076 1.48992 
4 1 4.5979 6.17734 6.17658 
5 1 3.08577 7.6846 7.68461 
6 1 3.79459 6.97759 6.97728 
37 1 0.771755 10.0366 10.0381 
38 1 2.27277 8.49183 8.49075 
39 1 1.57646 9.20097 9.20179 
13 1 6.23516 4.5384 4.53768 
14 1 7.77493 3.00194 3.00226 
15 1 7.06623 3.70878 3.7089 
28 1 10.0979 0.660312 0.715276 
29 1 8.58545 2.19324 2.18776 
30 1 9.2932 1.47273 1.48857 
1 1 6.17491 4.59966 6.17426 
2 1 7.69382 3.07612 7.69309 
3 1 6.98719 3.78475 6.98671 
40 1 10.0343 0.825582 10.0112 
41 1 8.50217 2.26734 8.50037 
42 1 9.20614 1.63478 9.17721 
7 1 6.17863 6.17811 4.59554 
8 1 7.69198 7.69186 3.07806 
9 1 6.98495 6.98481 3.78742 
43 1 10.0894 10.0378 0.810546 
44 1 8.50064 8.50392 2.25977 
45 1 9.21676 9.21444 1.56663 
22 1 6.24468 6.24395 6.24184 
23 1 7.77534 7.7756 7.77949 
24 1 7.0612 7.06106 7.06264 
34 1 10.1851 10.0383 10.1487 
35 1 8.56463 8.52527 8.53646 
36 1 9.28143 9.24707 9.24899 
49 2 8.58653 10.5456 10.0092 
ITEM: TIMESTEP
20
ITEM: NUMBER OF ATOMS
49
ITEM: BOX BOUNDS pp pp pp
0.0000000000000000e+00 1.1000000000000000e+01
0.0000000000000000e+00 1.1002000000000001e+01
0.0000000000000000e+00 1.1000000000000000e+01
ITEM: ATOMS id type x y z 
10 1 4.59775 4.59407 4.59327 
11 1 3.08505 3.08446 3.08422 
12 1 3.79233 3.79191 3.79307 
46 1 0.735104 0.752442 0.738109 
47 1 2.27673 2.27315 2.27664 
48 1 1.56723 1.57287 1.56748 
19 1 4.5386 4.53425 6.23658 
20 1 3.00496 3.00628 7.77029 
21 1 3.7093 3.70717 7.06612 
31 1 0.695006 0.680891 10.0956 
32 1 2.19473 2.19581 8.58075 
33 1 1.49251 1.48491 9.292 
16 1 4.53815 6.23656 4.53367 
17 1 3.00623 7.77085 3.00629 
18 1 3.71103 7.06464 3.71016 
25 1 0.70314 10.0934 0.687005 
26 1 2.19699 8.57708 2.19809 
27 1 1.4947 9.29004 1.49046 
4 1 4.59359 6.173 6.17283 
5 1 3.08646 7.68331 7.68333 
6 1 3.7944 6.97655 6.97603 
37 1 0.762612 10.0469 10.0397 
38 1 2.26977 8.49337 8.49438 
39 1 1.57549 9.20833 9.20579 
13 1 6.23932 4.53592 4.53625 
14 1 7.77343 3.0033 3.00242 
15 1 7.06763 3.70772 3.70745 
28 1 10.1106 0.674911 0.704043 
29 1 8.58027 2.19132 2.1899 
30 1 9.29908 1.47955 1.49431 
1 1 6.17589 4.59085 6.17244 
2 1 7.69291 3.07577 7.6925 
3 1 6.98503 3.78427 6.98352 
40 1 10.0648 0.86779 10.0188 
41 1 8.50951 2.2782 8.50036 
42 1 9.22854 1.64745 9.18894 
7 1 6.17901 6.17533 4.58797 
8 1 7.68588 7.68685 3.08312 
9 1 6.97847 6.97714 3.79139 
43 1 10.109 10.0367 0.842925 
44 1 8.48457 8.49398 2.26479 
45 1 9.21762 9.20564 1.59044 
22 1 6.24306 6.24023 6.23858 
23 1 7.77078 7.7668 7.77296 
24 1 7.04926 7.04792 7.05156 
34 1 10.1538 10.0789 10.1591 
35 1 8.59678 8.47477 8.51369 
36 1 9.21357 9.26932 9.24459 
49 2 8.5424 10.4882 9.96114 
ITEM: TIMESTEP
30
ITEM: NUMBER OF ATOMS
49
ITEM: BOX BOUNDS pp pp pp
0.0000000000000000e+00 1.1000000000000000e+01
0.0000000000000000e+00 1.1002000000000001e+01
0.0000000000000000e+00 1.1000000000000000e+01
ITEM: ATOMS id type x y z 
10 1 4.59781 4.58951 4.59489 
11 1 3.08466 3.08573 3.08904 
12 1 3.80031 3.79364 3.79165 
46 1 0.752355 0.758357 0.757854 
47 1 2.28717 2.2852 2.28426 
48 1 1.57312 1.57945 1.57762 
19 1 4.53659 4.52973 6.23867 
20 1 3.00512 3.00528 7.7699 
21 1 3.70904 3.70936 7.06592 
31 1 0.709684 0.674166 10.0861 
32 1 2.20029 2.19891 8.58309 
33 1 1.50055 1.48657 9.28024 
16 1 4.53619 6.23595 4.53414 
17 1 3.00412 7.77056 3.00633 
18 1 3.71117 7.06582 3.70777 
25 1 0.721411 10.0971 0.670691 
26 1 2.19624 8.58132 2.19981 
27 1 1.50224 9.28754 1.48238 
4 1 4.57856 6.17001 6.17238 
5 1 3.08179 7.69172 7.6908 
6 1 3.77947 6.97988 6.98051 
37 1 0.744318 10.0388 10.0463 
38 1 2.26582 8.50104 8.50057 
39 1 1.56877 9.21149 9.21104 
13 1 6.24382 4.52875 4.53169 
14 1 7.77591 2.99794 2.99665 
15 1 7.07385 3.70393 3.70383 
28 1 10.1121 0.683576 0.687919 
29 1 8.58759 2.18601 2.18958 
30 1 9.29877 1.47685 1.48817 
1 1 6.17996 4.57092 6.16857 
2 1 7.68882 3.08479 7.68339 
3 1 6.96998 3.77995 6.97485 
40 1 10.1669 0.939817 10.0707 
41 1 8.50645 2.29126 8.49246 
42 1 9.28771 1.68152 9.21977 
7 1 6.17463 6.16253 4.57141 
8 1 7.6838 7.68653 3.07777 
9 1 6.97919 6.97895 3.78941 
43 1 10.1172 10.0552 0.846357 
44 1 8.48312 8.4954 2.25796 
45 1 9.23612 9.21445 1.60902 
22 1 6.21034 6.21478 6.2093 
23 1 7.77343 7.74761 7.75575 
24 1 7.04798 7.0367 7.05436 
34 1 10.1179 10.163 10.1799 
35 1 8.6614 8.37796 8.45815 
36 1 9.12189 9.3475 9.2904 
49 2 8.42735 10.3379 9.95565 
ITEM: TIMESTEP
40
ITEM: NUMBER OF ATOMS
49
ITEM: BOX BOUNDS pp pp pp
0.0000000000000000e+00 1.1000000000000000e+01
0.0000000000000000e+00 1.1002000000000001e+01
0.0000000000000000e+00 1.1000000000000000e+01
ITEM: ATOMS id type x y z 
10 1 4.59939 4.59038 4.59358 
11 1 3.08559 3.08712 3.09356 
12 1 3.80599 3.79752 3.78921 
46 1 0.764492 0.750113 0.762808 
47 1 2.28644 2.29313 2.28657 
48 1 1.58215 1.57339 1.58251 
19 1 4.5365 4.53031 6.23458 
20 1 3.00504 3.00352 7.77098 
21 1 3.70926 3.71419 7.06252 
31 1 0.732499 0.666471 10.0979 
32 1 2.2044 2.20334 8.58297 
33 1 1.50362 1.47713 9.27786 
16 1 4.53372 6.23302 4.53397 
17 1 3.0002 7.77199 3.00569 
18 1 3.7145 7.06481 3.70696 
25 1 0.72221 10.1025 0.66606 
26 1 2.19947 8.58337 2.19986 
27 1 1.50027 9.28521 1.47868 
4 1 4.56521 6.17327 6.16994 
5 1 3.07433 7.69261 7.69094 
6 1 3.78448 6.98455 6.98583 
37 1 0.714042 10.034 10.044 
38 1 2.26576 8.50964 8.5068 
39 1 1.55333 9.20845 9.21338 
13 1 6.24355 4.52956 4.52679 
14 1 7.78017 2.99713 2.99248 
15 1 7.07116 3.69827 3.7052 
28 1 10.1167 0.685581 0.691505 
29 1 8.58501 2.17903 2.19233 
30 1 9.30614 1.4871 1.48196 
1 1 6.17995 4.57209 6.16301 
2 1 7.69098 3.08253 7.68518 
3 1 6.96806 3.77157 6.97296 
40 1 10.1687 0.934804 10.0803 
41 1 8.51771 2.29725 8.49857 
42 1 9.29788 1.69217 9.22373 
7 1 6.17808 6.16545 4.57197 
8 1 7.68809 7.69217 3.08199 
9 1 6.9723 6.97217 3.76977 
43 1 10.1138 10.0558 0.831075 
44 1 8.49366 8.49992 2.25569 
45 1 9.23737 9.22317 1.6095 
22 1 6.21592 6.22428 6.22199 
23 1 7.78426 7.72696 7.75128 
24 1 7.04405 7.03242 7.04049 
34 1 10.0894 10.2004 10.1756 
35 1 8.71042 8.36241 8.44683 
36 1 9.08953 9.3467 9.29281 
49 2 8.3873 10.3119 9.98475 
ITEM: TIMESTEP
50
ITEM: NUMBER OF ATOMS
49
ITEM: BOX BOUNDS pp pp pp
0.0000000000000000e+00 1.1000000000000000e+01
0.0000000000000000e+00 1.1002000000000001e+01
0.0000000000000000e+00 1.1000000000000000e+01
ITEM: ATOMS id type x y z 
10 1 4.60735 4.59574 4.58843 
11 1 3.09055 3.09159 3.09372 
12 1 3.80605 3.79992 3.79616 
46 1 0.780426 0.739123 0.762813 
47 1 2.28287 2.29707 2.28969 
48 1 1.59381 1.56897 1.58392 
19 1 4.53531 4.53469 6.23485 
20 1 3.00249 3.00516 7.77155 
21 1 3.71102 3.71282 7.06095 
31 1 0.749238 0.64883 10.098 
32 1 2.19778 2.19119 8.57098 
33 1 1.52337 1.48306 9.30879 
16 1 4.53737 6.23547 4.53175 
17 1 3.00268 7.77074 3.00442 
18 1 3.70919 7.06506 3.711 
25 1 0.719581 10.0959 0.660692 
26 1 2.19751 8.58285 2.19554 
27 1 1.50483 9.29194 1.47522 
4 1 4.56473 6.18302 6.17467 
5 1 3.07402 7.69892 7.69976 
6 1 3.76936 6.98793 6.98327 
37 1 0.680602 10.0332 10.0314 
38 1 2.26389 8.51769 8.51254 
39 1 1.53229 9.20428 9.21468 
13 1 6.24712 4.52968 4.52638 
14 1 7.77809 2.9933 2.99489 
15 1 7.07304 3.70201 3.70007 
28 1 10.136 0.696092 0.700546 
29 1 8.58624 2.17953 2.18787 
30 1 9.31099 1.48178 1.48759 
1 1 6.17957 4.57038 6.16235 
2 1 7.6844 3.07415 7.68489 
3 1 6.97734 3.77737 6.96853 
40 1 10.1734 0.925826 10.0825 
41 1 8.5291 2.31172 8.50336 
42 1 9.30642 1.70124 9.22715 
7 1 6.17637 6.16647 4.56662 
8 1 7.68611 7.69197 3.07186 
9 1 6.97793 6.97551 3.77183 
43 1 10.1082 10.0682 0.827501 
44 1 8.50128 8.50964 2.26781 
45 1 9.2405 9.21914 1.59546 
22 1 6.21076 6.22768 6.22084 
23 1 7.81978 7.70482 7.74207 
24 1 7.05199 7.02841 7.04066 
34 1 10.0368 10.2305 10.1639 
35 1 8.7568 8.34445 8.42818 
36 1 9.04596 9.34163 9.29301 
49 2 8.34244 10.2842 10.0144 
ITEM: TIMESTEP
55
ITEM: NUMBER OF ATOMS
49
ITEM: BOX BOUNDS pp pp pp
0.0000000000000000e+00 1.1000000000000000e+01
0.0000000000000000e+00 1.1002000000000001e+01
0.0000000000000000e+00 1.1000000000000000e+01
ITEM: ATOMS id type x y z 
10 1 4.60734 4.59567 4.58884 
11 1 3.09067 3.09167 3.09371 
12 1 3.8059 3.79988 3.79628 
46 1 0.78058 0.739056 0.762938 
47 1 2.28296 2.29708 2.28975 
48 1 1.59365 1.56893 1.5838 
19 1 4.53549 4.53495 6.23474 
20 1 3.00272 3.00546 7.77127 
21 1 3.71125 3.71294 7.06077 
31 1 0.749182 0.648599 10.0982 
32 1 2.19793 2.19136 8.57097 
33 1 1.52343 1.48298 9.30854 
16 1 4.53735 6.23551 4.53188 
17 1 3.00252 7.77091 3.00431 
18 1 3.70926 7.06496 3.71099 
25 1 0.719445 10.0959 0.66033 
26 1 2.19756 8.5828 2.19549 
27 1 1.50481 9.29199 1.47534 
4 1 4.56498 6.18254 6.17472 
5 1 3.07388 7.69899 7.6998 
6 1 3.76953 6.98791 6.9833 
37 1 0.680483 10.033 10.0314 
38 1 2.26379 8.51772 8.51264 
39 1 1.53203 9.20457 9.21485 
13 1 6.24715 4.52971 4.52645 
14 1 7.77823 2.9932 2.99475 
15 1 7.07298 3.70198 3.70012 
28 1 10.1361 0.695998 0.70039 
29 1 8.58614 2.17953 2.18784 
30 1 9.31111 1.48187 1.48774 
1 1 6.17913 4.57067 6.16236 
2 1 7.68436 3.07421 7.68471 
3 1 6.97735 3.7773 6.96879 
40 1 10.1731 0.925807 10.0824 
41 1 8.52923 2.3117 8.50347 
42 1 9.30652 1.70118 9.22723 
7 1 6.17644 6.16651 4.56686 
8 1 7.68608 7.69191 3.07179 
9 1 6.97801 6.97568 3.77189 
43 1 10.1083 10.0682 0.827376 
44 1 8.5014 8.50969 2.2677 
45 1 9.24049 9.21923 1.59556 
22 1 6.21064 6.2276 6.22085 
23 1 7.8196 7.70443 7.74169 
24 1 7.05189 7.02825 7.04053 
34 1 10.0368 10.2306 10.1639 
35 1 8.75708 8.34467 8.42837 
36 1 9.04573 9.34164 9.29302 
49 2 8.34244 10.284 10.0144 
ITEM: TIMESTEP
56
ITEM: NUMBER OF ATOMS
49
ITEM: BOX BOUNDS pp pp pp
0.0000000000000000e+00 1.1000000000000000e+01
0.0000000000000000e+00 1.1002000000000001e+01
0.0000000000000000e+00 1.1000000000000000e+01
ITEM: ATOMS id type x y z 
10 1 4.60734 4.59567 4.58884 
11 1 3.09067 3.09167 3.09371 
12 1 3.8059 3.79988 3.79628 
46 1 0.78058 0.739056 0.762938 
47 1 2.28296 2.29708 2.28975 
48 1 1.59365 1.56893 1.5838 
19 1 4.53549 4.53495 6.23474 
20 1 3.00272 3.00546 7.77127 
21 1 3.71125 3.71294 7.06077 
31 1 0.749182 0.648599 10.0982 
32 1 2.19793 2.19136 8.57097 
33 1 1.52343 1.48298 9.30854 
16 1 4.53735 6.23551 4.53188 
17 1 3.00252 7.77091 3.00431 
18 1 3.70926 7.06496 3.71099 
25 1 0.719445 10.0959 0.66033 
26 1 2.19756 8.5828 2.19549 
27 1 1.50481 9.29199 1.47534 
4 1 4.56498 6.18254 6.17472 
5 1 3.07388 7.69899 7.6998 
6 1 3.76953 6.98791 6.9833 
37 1 0.680483 10.033 10.0314 
38 1 2.26379 8.51772 8.51264 
39 1 1.53203 9.20457 9.21485 
13 1 6.24715 4.52971 4.52645 
14 1 7.77823 2.9932 2.99475 
15 1 7.07298 3.70198 3.70012 
28 1 10.1361 0.695998 0.70039 
29 1 8.58614 2.17953 2.18784 
30 1 9.31111 1.48187 1.48774 
1 1 6.17913 4.57067 6.16236 
2 1 7.68436 3.07421 7.68471 
3 1 6.97735 3.7773 6.96879 
40 1 10.1731 0.925807 10.0824 
41 1 8.52923 2.3117 8.50347 
42 1 9.30652 1.70118 9.22723 
7 1 6.17644 6.16651 4.56686 
8 1 7.68608 7.69191 3.07179 
9 1 6.97801 6.97568 3.77189 
43 1 10.1083 10.0682 0.827376 
44 1 8.5014 8.50969 2.2677 
45 1 9.24049 9.21923 1.59556 
22 1 6.21064 6.2276 6.22085 
23 1 7.8196 7.70443 7.74169 
24 1 7.05189 7.02825 7.04053 
34 1 10.0368 10.2306 10.1639 
35 1 8.75708 8.34467 8.42837 
36 1 9.04573 9.34164 9.29302 
49 2 8.34244 10.284 10.0144 
ITEM: TIMESTEP
60
ITEM: NUMBER OF ATOMS
49
ITEM: BOX BOUNDS pp pp pp
-2.0046998112701660e-03 1.1002004699811270e+01
-2.2004000000000004e-03 1.1004200400000000e+01
-2.1020279061010430e-03 1.1002102027906103e+01
ITEM: ATOMS id type x y z 
10 1 4.60702 4.59531 4.58852 
11 1 3.0898 3.09071 3.09279 
12 1 3.80527 3.7992 3.79563 
46 1 0.778867 0.737144 0.761133 
47 1 2.28179 2.2958 2.28853 
48 1 1.59221 1.56735 1.58229 
19 1 4.53515 4.53458 6.23501 
20 1 3.00183 3.00448 7.77212 
21 1 3.71061 3.71224 7.06136 
31 1 0.747441 0.646643 10.0999 
32 1 2.19674 2.19004 8.57215 
33 1 1.52199 1.48137 9.30998 
16 1 4.537 6.2358 4.53152 
17 1 3.00161 7.77183 3.00335 
18 1 3.70861 7.06558 3.71031 
25 1 0.717689 10.0977 0.658456 
26 1 2.19636 8.58403 2.19422 
27 1 1.50335 9.29351 1.47381 
4 1 4.56465 6.18278 6.17497 
5 1 3.07298 7.69987 7.70064 
6 1 3.76891 6.98851 6.98388 
37 1 0.678717 10.0348 10.0332 
38 1 2.2626 8.51893 8.5138 
39 1 1.53057 9.20607 9.21628 
13 1 6.24742 4.52933 4.52608 
14 1 7.77907 2.99219 2.99378 
15 1 7.07355 3.70126 3.69944 
28 1 10.1378 0.694066 0.698542 
29 1 8.58726 2.1782 2.18657 
30 1 9.31251 1.48027 1.48621 
1 1 6.17935 4.57032 6.16261 
2 1 7.68515 3.07325 7.68553 
3 1 6.97789 3.7766 6.96937 
40 1 10.1748 0.923973 10.0842 
41 1 8.53034 2.31043 8.50463 
42 1 9.30791 1.69966 9.22867 
7 1 6.17668 6.16678 4.56652 
8 1 7.68688 7.69278 3.07086 
9 1 6.97856 6.97628 3.77124 
43 1 10.11 10.07 0.825579 
44 1 8.5025 8.5109 2.26646 
45 1 9.24186 9.22072 1.59408 
22 1 6.21089 6.22788 6.22113 
23 1 7.82043 7.70528 7.74252 
24 1 7.05245 7.02885 7.04111 
34 1 10.0384 10.2325 10.1656 
35 1 8.75829 8.34582 8.4295 
36 1 9.04701 9.34318 9.29447 
49 2 8.34348 10.2859 10.0161 
ITEM: TIMESTEP
70
ITEM: NUMBER OF ATOMS
49
ITEM: BOX BOUNDS pp pp pp
-1.2447437601872304e-03 1.1001244743760187e+01
-7.7014000000000041e-03 1.1009701399999999e+01
-5.5537810208849082e-03 1.1005553781020884e+01
ITEM: ATOMS id type x y z 
10 1 4.60747 4.59468 4.58858 
11 1 3.09038 3.08849 3.09133 
12 1 3.80523 3.79735 3.79464 
46 1 0.779421 0.732086 0.758088 
47 1 2.28218 2.29243 2.28643 
48 1 1.59242 1.56325 1.57956 
19 1 4.53565 4.53409 6.23516 
20 1 3.00256 3.00246 7.77307 
21 1 3.71117 3.71061 7.06211 
31 1 0.747616 0.641418 10.1034 
32 1 2.19729 2.18683 8.5742 
33 1 1.52273 1.47739 9.3119 
16 1 4.53736 6.23637 4.53129 
17 1 3.00193 7.77414 3.00183 
18 1 3.70911 7.06684 3.70932 
25 1 0.717855 10.1026 0.654848 
26 1 2.1968 8.58715 2.19196 
27 1 1.50394 9.29722 1.47156 
4 1 4.56527 6.18273 6.17509 
5 1 3.07325 7.70205 7.70193 
6 1 3.76924 6.99011 6.98501 
37 1 0.679112 10.0394 10.0363 
38 1 2.26275 8.52212 8.51596 
39 1 1.5308 9.21014 9.21881 
13 1 6.24712 4.52865 4.52576 
14 1 7.77876 2.98971 2.99219 
15 1 7.0731 3.69959 3.69855 
28 1 10.1375 0.688886 0.695028 
29 1 8.58678 2.17479 2.18437 
30 1 9.31205 1.47647 1.48399 
1 1 6.17858 4.56993 6.16268 
2 1 7.68477 3.07094 7.68663 
3 1 6.97774 3.77473 6.97068 
40 1 10.1741 0.919133 10.0872 
41 1 8.53024 2.30711 8.50678 
42 1 9.3077 1.69561 9.2313 
7 1 6.17632 6.16714 4.56641 
8 1 7.68646 7.69482 3.06931 
9 1 6.97855 6.97805 3.77016 
43 1 10.1096 10.0748 0.822282 
44 1 8.50235 8.51407 2.26419 
45 1 9.24152 9.22475 1.5916 
22 1 6.21048 6.22834 6.22139 
23 1 7.81976 7.70683 7.7433 
24 1 7.05207 7.03012 7.04186 
34 1 10.0378 10.2375 10.1688 
35 1 8.75819 8.34896 8.43159 
36 1 9.04619 9.34708 9.29691 
49 2 8.3432 10.2904 10.0189 
ITEM: TIMESTEP
80
ITEM: NUMBER OF ATOMS
49
ITEM: BOX BOUNDS pp pp pp
2.1517747841218494e-03 1.0997848225215877e+01
-1.3202400000000000e-02 1.1015202399999998e+01
-8.2842938537000532e-03 1.1008284293853700e+01
ITEM: ATOMS id type x y z 
10 1 4.60854 4.59422 4.58907 
11 1 3.0922 3.08635 3.09017 
12 1 3.80587 3.79544 3.79396 
46 1 0.782206 0.726847 0.755615 
47 1 2.28398 2.28882 2.28457 
48 1 1.59444 1.5592 1.57733 
19 1 4.53685 4.53383 6.23504 
20 1 3.00475 3.00069 7.77344 
21 1 3.71264 3.7091 7.06261 
31 1 0.749872 0.635967 10.1065 
32 1 2.19947 2.18368 8.57591 
33 1 1.5255 1.47341 9.31306 
16 1 4.53829 6.23684 4.53138 
17 1 3.0036 7.77633 3.00081 
18 1 3.71045 7.06809 3.7085 
25 1 0.720054 10.1077 0.651623 
26 1 2.19883 8.59037 2.19013 
27 1 1.50647 9.30074 1.46982 
4 1 4.56657 6.18235 6.17495 
5 1 3.07468 7.70418 7.70285 
6 1 3.7704 6.99182 6.98612 
37 1 0.681664 10.0439 10.0389 
38 1 2.2642 8.52548 8.51797 
39 1 1.53284 9.21435 9.22088 
13 1 6.24636 4.52815 4.52572 
14 1 7.77722 2.9874 2.99104 
15 1 7.07191 3.69784 3.69791 
28 1 10.1352 0.683508 0.691929 
29 1 8.58479 2.17134 2.18254 
30 1 9.30982 1.47279 1.48245 
1 1 6.17716 4.56982 6.16247 
2 1 7.68334 3.06866 7.68734 
3 1 6.97685 3.77282 6.97197 
40 1 10.1712 0.914151 10.0897 
41 1 8.52895 2.30367 8.50877 
42 1 9.30569 1.69152 9.23349 
7 1 6.17549 6.16733 4.56665 
8 1 7.68495 7.69678 3.06805 
9 1 6.97793 6.97998 3.76934 
43 1 10.1071 10.0797 0.819389 
44 1 8.50096 8.51738 2.26216 
45 1 9.23941 9.22889 1.5897 
22 1 6.20957 6.22864 6.22144 
23 1 7.81782 7.70803 7.74344 
24 1 7.05085 7.03124 7.04228 
34 1 10.0351 10.2426 10.1714 
35 1 8.75671 8.35229 8.43344 
36 1 9.04348 9.35099 9.29886 
49 2 8.34161 10.2947 10.021 
ITEM: TIMESTEP
90
ITEM: NUMBER OF ATOMS
49
ITEM: BOX BOUNDS pp pp pp
4.9826873505616999e-03 1.0995017312649434e+01
-1.8105678656161587e-02 1.1020105678656156e+01
-1.0867886557223141e-02 1.1010867886557222e+01
ITEM: ATOMS id type x y z 
10 1 4.60952 4.59387 4.58949 
11 1 3.09375 3.08445 3.08904 
12 1 3.80637 3.79373 3.79336 
46 1 0.784533 0.722113 0.753254 
47 1 2.28537 2.28548 2.28272 
48 1 1.59615 1.55567 1.5753 
19 1 4.53792 4.53361 6.2349 
20 1 3.00668 2.99916 7.77376 
21 1 3.71382 3.70776 7.06314 
31 1 0.751717 0.631036 10.1094 
32 1 2.20132 2.18089 8.57756 
33 1 1.52786 1.46985 9.31411 
16 1 4.53911 6.23723 4.53148 
17 1 3.00511 7.77817 2.99997 
18 1 3.71151 7.06925 3.70763 
25 1 0.721761 10.1122 0.64858 
26 1 2.20046 8.59326 2.18845 
27 1 1.50869 9.30385 1.46808 
4 1 4.56769 6.18198 6.17479 
5 1 3.07588 7.70606 7.70368 
6 1 3.77136 6.99338 6.98723 
37 1 0.683719 10.048 10.0414 
38 1 2.26526 8.52856 8.51995 
39 1 1.53452 9.2181 9.22279 
13 1 6.24569 4.52775 4.52569 
14 1 7.77581 2.98546 2.99005 
15 1 7.07098 3.69622 3.69725 
28 1 10.1334 0.678682 0.689028 
29 1 8.58309 2.16826 2.18082 
30 1 9.308 1.46954 1.481 
1 1 6.17584 4.56976 6.16231 
2 1 7.68211 3.06662 7.68811 
3 1 6.97621 3.77111 6.97301 
40 1 10.1687 0.909672 10.092 
41 1 8.52799 2.30057 8.5107 
42 1 9.30398 1.68792 9.2355 
7 1 6.17472 6.16743 4.56685 
8 1 7.68368 7.69852 3.06683 
9 1 6.97744 6.98173 3.76859 
43 1 10.1051 10.084 0.816629 
44 1 8.49992 8.52039 2.26019 
45 1 9.23762 9.23257 1.58797 
22 1 6.20877 6.22889 6.22148 
23 1 7.81618 7.70901 7.74356 
24 1 7.04981 7.0322 7.04268 
34 1 10.0328 10.2472 10.1739 
35 1 8.75556 8.35533 8.43521 
36 1 9.04113 9.35447 9.3007 
49 2 8.34031 10.2984 10.023 
ITEM: TIMESTEP
100
ITEM: NUMBER OF ATOMS
49
ITEM: BOX BOUNDS pp pp pp
7.3345757218468630e-03 1.0992665424278147e+01
-2.2618689899894840e-02 1.1024618689899889e+01
-1.3384337546799283e-02 1.1013384337546800e+01
ITEM: ATOMS id type x y z 
10 1 4.61043 4.59362 4.58985 
11 1 3.09508 3.08272 3.08793 
12 1 3.80672 3.79214 3.79281 
46 1 0.786462 0.717693 0.750924 
47 1 2.28645 2.28232 2.28087 
48 1 1.59754 1.55247 1.57335 
19 1 4.53891 4.53344 6.23479 
20 1 3.00839 2.99776 7.7741 
21 1 3.71475 3.70652 7.06365 
31 1 0.75319 0.626441 10.1123 
32 1 2.20288 2.17833 8.57917 
33 1 1.52986 1.46654 9.31512 
16 1 4.53985 6.23757 4.53159 
17 1 3.00645 7.7798 2.99921 
18 1 3.71239 7.07033 3.70674 
25 1 0.723088 10.1165 0.645588 
26 1 2.20182 8.59593 2.18682 
27 1 1.51055 9.30667 1.46637 
4 1 4.56866 6.18165 6.17461 
5 1 3.07688 7.70778 7.70447 
6 1 3.77214 6.99483 6.98835 
37 1 0.685343 10.0519 10.0439 
38 1 2.26599 8.53146 8.52193 
39 1 1.53588 9.22158 9.22464 
13 1 6.24507 4.52744 4.52566 
14 1 7.77454 2.98374 2.98914 
15 1 7.07023 3.6947 3.6966 
28 1 10.132 0.674216 0.686224 
29 1 8.58166 2.16541 2.17914 
30 1 9.30653 1.46659 1.47958 
1 1 6.17467 4.56975 6.16214 
2 1 7.6811 3.06477 7.6889 
3 1 6.97565 3.76947 6.97397 
40 1 10.1666 0.905501 10.0943 
41 1 8.52731 2.2977 8.5126 
42 1 9.30256 1.68461 9.23743 
7 1 6.17401 6.16748 4.56702 
8 1 7.68261 7.70012 3.06565 
9 1 6.97708 6.98335 3.76783 
43 1 10.1035 10.0881 0.813918 
44 1 8.49915 8.5232 2.25825 
45 1 9.23614 9.23598 1.58631 
22 1 6.20806 6.2291 6.22152 
23 1 7.81482 7.70984 7.74366 
24 1 7.04893 7.03307 7.04308 
34 1 10.0309 10.2514 10.1764 
35 1 8.75467 8.35818 8.43696 
36 1 9.03905 9.35765 9.30248 
49 2 8.33924 10.3018 10.0249 
ITEM: TIMESTEP
110
ITEM: NUMBER OF ATOMS
49
ITEM: BOX BOUNDS pp pp pp
9.3508171102376671e-03 1.0990649182889754e+01
-2.6879875614429616e-02 1.1028879875614424e+01
-1.5881349474952039e-02 1.1015881349474954e+01
ITEM: ATOMS id type x y z 
10 1 4.61129 4.59344 4.59019 
11 1 3.09623 3.0811 3.08687 
12 1 3.80703 3.79063 3.79219 
46 1 0.788109 0.713446 0.748572 
47 1 2.28731 2.27926 2.279 
48 1 1.59869 1.54947 1.57142 
19 1 4.5398 4.53332 6.23465 
20 1 3.00991 2.99646 7.77442 
21 1 3.71558 3.70532 7.06423 
31 1 0.754383 0.622049 10.1152 
32 1 2.20426 2.17593 8.5808 
33 1 1.53163 1.46339 9.31609 
16 1 4.54054 6.23785 4.53171 
17 1 3.00769 7.78128 2.99852 
18 1 3.71316 7.07133 3.70584 
25 1 0.724116 10.1205 0.64258 
26 1 2.20297 8.59846 2.18519 
27 1 1.51221 9.30933 1.46468 
4 1 4.5695 6.18136 6.17439 
5 1 3.07772 7.70941 7.70523 
6 1 3.77282 6.99622 6.98951 
37 1 0.686641 10.0555 10.0464 
38 1 2.26647 8.53425 8.52394 
39 1 1.53699 9.2249 9.22645 
13 1 6.24448 4.52718 4.52567 
14 1 7.77333 2.98215 2.9883 
15 1 7.06961 3.69334 3.69593 
28 1 10.1309 0.669969 0.683449 
29 1 8.58041 2.1627 2.17747 
30 1 9.30531 1.46385 1.47819 
1 1 6.17354 4.5697 6.16194 
2 1 7.68018 3.06299 7.68971 
3 1 6.97529 3.76799 6.9749 
40 1 10.1649 0.901502 10.0967 
41 1 8.52684 2.29498 8.5145 
42 1 9.30137 1.68148 9.23935 
7 1 6.17334 6.16754 4.56726 
8 1 7.68171 7.70173 3.06461 
9 1 6.97675 6.98471 3.76682 
43 1 10.1022 10.092 0.811195 
44 1 8.49858 8.52587 2.25631 
45 1 9.23488 9.23923 1.5847 
22 1 6.20741 6.22928 6.22154 
23 1 7.81365 7.71054 7.74375 
24 1 7.04816 7.03387 7.04348 
34 1 10.0292 10.2554 10.1788 
35 1 8.75399 8.36093 8.43871 
36 1 9.03716 9.36064 9.30423 
49 2 8.33834 10.3049 10.0268 
ITEM: TIMESTEP
120
ITEM: NUMBER OF ATOMS
49
ITEM: BOX BOUNDS pp pp pp
1.1078253897165094e-02 1.0988921746102827e+01
-3.1075079458778274e-02 1.1033075079458770e+01
-1.8485515172953368e-02 1.1018485515172955e+01
ITEM: ATOMS id type x y z 
10 1 4.61208 4.5933 4.59062 
11 1 3.09717 3.07948 3.0859 
12 1 3.80743 3.78922 3.79127 
46 1 0.789514 0.709185 0.746078 
47 1 2.28798 2.27618 2.27703 
48 1 1.59962 1.54653 1.56942 
19 1 4.54066 4.53323 6.23452 
20 1 3.01132 2.99519 7.77481 
21 1 3.71624 3.70414 7.0648 
31 1 0.75531 0.617676 10.1183 
32 1 2.20547 2.17359 8.58252 
33 1 1.5332 1.46024 9.31706 
16 1 4.5412 6.23809 4.53185 
17 1 3.00884 7.78268 2.99784 
18 1 3.71385 7.07229 3.7049 
25 1 0.724846 10.1244 0.639416 
26 1 2.2039 8.60094 2.18348 
27 1 1.51372 9.31196 1.4629 
4 1 4.57025 6.1811 6.17412 
5 1 3.07843 7.71102 7.70602 
6 1 3.77339 6.99759 6.99076 
37 1 0.687628 10.0592 10.0491 
38 1 2.26671 8.53704 8.52607 
39 1 1.53788 9.22822 9.22833 
13 1 6.2439 4.52698 4.52571 
14 1 7.7722 2.98062 2.98749 
15 1 7.06905 3.69204 3.6952 
28 1 10.1301 0.665745 0.680584 
29 1 8.57933 2.15999 2.17576 
30 1 9.30431 1.46124 1.47669 
1 1 6.17254 4.56971 6.16169 
2 1 7.67942 3.0613 7.69056 
3 1 6.97491 3.76641 6.97583 
40 1 10.1634 0.897491 10.0991 
41 1 8.52659 2.2923 8.51651 
42 1 9.30039 1.67839 9.24135 
7 1 6.17265 6.16753 4.56743 
8 1 7.68089 7.70329 3.06347 
9 1 6.97656 6.9861 3.76583 
43 1 10.1012 10.0958 0.808324 
44 1 8.49822 8.52853 2.25427 
45 1 9.23381 9.24248 1.58304 
22 1 6.20681 6.22945 6.22155 
23 1 7.81267 7.71116 7.74383 
24 1 7.04749 7.03463 7.04391 
34 1 10.0278 10.2594 10.1813 
35 1 8.7535 8.3637 8.44055 
36 1 9.03538 9.36356 9.30604 
49 2 8.33758 10.3079 10.0288 
ITEM: TIMESTEP
130
ITEM: NUMBER OF ATOMS
49
ITEM: BOX BOUNDS pp pp pp
1.2567422762940815e-02 1.0987432577237048e+01
-3.5295254985427252e-02 1.1037295254985422e+01
-2.1254469123546307e-02 1.1021254469123548e+01
ITEM: ATOMS id type x y z 
10 1 4.61293 4.59326 4.59098 
11 1 3.09805 3.07789 3.08484 
12 1 3.80768 3.78776 3.79036 
46 1 0.790728 0.704798 0.743374 
47 1 2.28848 2.273 2.2749 
48 1 1.60034 1.5436 1.56729 
19 1 4.54148 4.53319 6.23435 
20 1 3.01261 2.99393 7.77522 
21 1 3.71685 3.70294 7.06547 
31 1 0.755987 0.613228 10.1216 
32 1 2.20656 2.17124 8.58438 
33 1 1.53463 1.45702 9.31805 
16 1 4.54186 6.23828 4.53203 
17 1 3.00994 7.78404 2.99718 
18 1 3.71448 7.07323 3.70387 
25 1 0.725326 10.1285 0.636011 
26 1 2.2047 8.60347 2.18166 
27 1 1.51506 9.31456 1.46101 
4 1 4.57091 6.18087 6.17379 
5 1 3.07903 7.71266 7.70684 
6 1 3.77389 6.99897 6.99215 
37 1 0.688316 10.063 10.0519 
38 1 2.26668 8.5399 8.5284 
39 1 1.53856 9.23161 9.23032 
13 1 6.24331 4.52684 4.5258 
14 1 7.77107 2.97912 2.98668 
15 1 7.06856 3.6908 3.6944 
28 1 10.1297 0.661542 0.677602 
29 1 8.57852 2.15731 2.17402 
30 1 9.30319 1.45852 1.47495 
1 1 6.17153 4.56966 6.16138 
2 1 7.67868 3.05956 7.69147 
3 1 6.97474 3.76492 6.97682 
40 1 10.1621 0.893351 10.1018 
41 1 8.52655 2.2896 8.51867 
42 1 9.2996 1.67524 9.2435 
7 1 6.17195 6.16744 4.56762 
8 1 7.68019 7.70487 3.06232 
9 1 6.9764 6.98748 3.76468 
43 1 10.1003 10.0998 0.805217 
44 1 8.49805 8.53124 2.25208 
45 1 9.23291 9.2458 1.58131 
22 1 6.20623 6.22959 6.22154 
23 1 7.81187 7.71166 7.74388 
24 1 7.04688 7.03536 7.04436 
34 1 10.0265 10.2635 10.184 
35 1 8.75317 8.36656 8.44252 
36 1 9.03365 9.36647 9.30795 
49 2 8.33696 10.3108 10.0309 
ITEM: TIMESTEP
140
ITEM: NUMBER OF ATOMS
49
ITEM: BOX BOUNDS pp pp pp
1.3817167569943684e-02 1.0986182832430043e+01
-3.9772836451209055e-02 1.1041772836451202e+01
-2.4438291666315125e-02 1.1024438291666316e+01
ITEM: ATOMS id type x y z 
10 1 4.61384 4.59332 4.59134 
11 1 3.09885 3.07626 3.08363 
12 1 3.80786 3.78617 3.78931 
46 1 0.79177 0.700004 0.740209 
47 1 2.2888 2.26953 2.27246 
48 1 1.60084 1.54055 1.56485 
19 1 4.54234 4.53325 6.23417 
20 1 3.01387 2.9926 7.77574 
21 1 3.71735 3.70169 7.06621 
31 1 0.75638 0.608462 10.1254 
32 1 2.20755 2.16878 8.58659 
33 1 1.53595 1.45352 9.31912 
16 1 4.54254 6.23842 4.53227 
17 1 3.01102 7.78541 2.99646 
18 1 3.7151 7.07419 3.70268 
25 1 0.725528 10.1328 0.632061 
26 1 2.2054 8.60622 2.17954 
27 1 1.51619 9.31717 1.45884 
4 1 4.57159 6.18066 6.17347 
5 1 3.07958 7.71442 7.70786 
6 1 3.77413 7.00045 6.99362 
37 1 0.688626 10.0671 10.0553 
38 1 2.26632 8.54301 8.53111 
39 1 1.53899 9.2353 9.2326 
13 1 6.24271 4.52683 4.52593 
14 1 7.76994 2.97763 2.98581 
15 1 7.06809 3.68948 3.6935 
28 1 10.1297 0.657086 0.674196 
29 1 8.57793 2.1545 2.17205 
30 1 9.30211 1.45562 1.47292 
1 1 6.17055 4.56967 6.16099 
2 1 7.67808 3.05776 7.69251 
3 1 6.97459 3.76322 6.97796 
40 1 10.1611 0.888808 10.1049 
41 1 8.52682 2.28673 8.52119 
42 1 9.299 1.67187 9.24599 
7 1 6.17117 6.16727 4.56773 
8 1 7.67952 7.70653 3.06093 
9 1 6.97644 6.98899 3.76344 
43 1 10.0998 10.1041 0.801581 
44 1 8.49815 8.53414 2.24954 
45 1 9.23221 9.24944 1.57934 
22 1 6.20565 6.2297 6.22151 
23 1 7.8113 7.71202 7.74391 
24 1 7.04634 7.03608 7.04487 
34 1 10.0254 10.2679 10.1871 
35 1 8.75303 8.36969 8.44477 
36 1 9.03187 9.3695 9.31011 
49 2 8.33646 10.3137 10.0334 
ITEM: TIMESTEP
150
ITEM: NUMBER OF ATOMS
49
ITEM: BOX BOUNDS pp pp pp
1.4300424180268527e-02 1.0985699575819716e+01
-4.4457164101097742e-02 1.1046457164101090e+01
-2.8382418059502788e-02 1.1028382418059504e+01
ITEM: ATOMS id type x y z 
10 1 4.61471 4.59345 4.5917 
11 1 3.09933 3.07451 3.08221 
12 1 3.80779 3.78465 3.78784 
46 1 0.79223 0.69481 0.736262 
47 1 2.28866 2.26579 2.2695 
48 1 1.6007 1.53742 1.56186 
19 1 4.54308 4.53343 6.23397 
20 1 3.01481 2.99121 7.77648 
21 1 3.71762 3.70044 7.06719 
31 1 0.756059 0.603467 10.13 
32 1 2.20815 2.16625 8.58935 
33 1 1.53677 1.4497 9.32047 
16 1 4.54321 6.23838 4.5324 
17 1 3.0119 7.78664 2.99538 
18 1 3.71543 7.07535 3.70156 
25 1 0.724951 10.1372 0.627278 
26 1 2.20563 8.60911 2.17694 
27 1 1.51684 9.31988 1.45611 
4 1 4.57219 6.18045 6.17329 
5 1 3.07993 7.71625 7.70937 
6 1 3.77378 7.0021 6.99506 
37 1 0.68805 10.0715 10.0594 
38 1 2.26527 8.54632 8.53442 
39 1 1.53878 9.23928 9.23538 
13 1 6.24212 4.52696 4.52605 
14 1 7.76895 2.97612 2.98469 
15 1 7.06791 3.68818 3.6924 
28 1 10.1305 0.652422 0.670012 
29 1 8.57772 2.15155 2.16956 
30 1 9.30165 1.45264 1.4705 
1 1 6.16963 4.56968 6.16065 
2 1 7.67771 3.05591 7.6939 
3 1 6.97481 3.76142 6.97919 
40 1 10.1608 0.883849 10.1087 
41 1 8.52773 2.28374 8.52429 
42 1 9.29897 1.6683 9.24907 
7 1 6.17046 6.16704 4.56781 
8 1 7.67922 7.70829 3.0593 
9 1 6.97659 6.99055 3.76171 
43 1 10.0999 10.1087 0.797088 
44 1 8.49881 8.53723 2.24645 
45 1 9.23207 9.25339 1.57694 