ITEM: TIMESTEP
0
ITEM: NUMBER OF ATOMS
65
ITEM: BOX BOUNDS pp pp pp
0.0000000000000000e+00 1.4190000000000000e+01
0.0000000000000000e+00 1.4190000000000000e+01
0.0000000000000000e+00 1.4190000000000000e+01
ITEM: ATOMS id type x y z 
57 1 2.098 0.759 2.098 
58 1 2.801 0.056 2.801 
59 1 0.759 0.759 0.759 
60 1 0.056 0.056 0.056 
61 1 0.759 2.098 2.098 
62 1 0.056 2.801 2.801 
63 1 2.098 2.098 0.759 
64 1 2.801 2.801 0.056 
41 1 4.307 4.307 12.741 
42 1 3.604 3.604 13.443 
43 1 4.307 5.646 11.401 
44 1 3.604 6.348 10.699 
45 1 5.646 5.646 12.741 
46 1 6.348 6.348 13.443 
47 1 5.646 4.307 11.401 
48 1 6.348 3.604 10.699 
25 1 4.307 12.741 4.307 
26 1 3.604 13.443 3.604 
27 1 5.646 11.401 4.307 
28 1 6.348 10.699 3.604 
29 1 5.646 12.741 5.646 
30 1 6.348 13.443 6.348 
31 1 4.307 11.401 5.646 
32 1 3.604 10.699 6.348 
65 2 3.6 13.226 5.363 
1 1 0.759 9.193 9.193 
2 1 0.056 9.896 9.896 
3 1 2.098 7.854 9.193 
4 1 2.801 7.151 9.896 
5 1 0.759 7.854 7.854 
6 1 0.056 7.151 7.151 
7 1 2.098 9.193 7.854 
8 1 2.801 9.896 7.151 
33 1 12.741 4.307 4.307 
34 1 13.443 3.604 3.604 
35 1 11.401 4.307 5.646 
36 1 10.699 3.604 6.348 
37 1 12.741 5.646 5.646 
38 1 13.443 6.348 6.348 
39 1 11.401 5.646 4.307 
40 1 10.699 6.348 3.604 
9 1 9.193 0.759 9.193 
10 1 9.896 0.056 9.896 
11 1 9.193 2.098 7.854 
12 1 9.896 2.801 7.151 
13 1 7.854 0.759 7.854 
14 1 7.151 0.056 7.151 
15 1 7.854 2.098 9.193 
16 1 7.151 2.801 9.896 
17 1 9.193 9.193 0.759 
18 1 9.896 9.896 0.056 
19 1 7.854 9.193 2.098 
20 1 7.151 9.896 2.801 
21 1 7.854 7.854 0.759 
22 1 7.151 7.151 0.056 
23 1 9.193 7.854 2.098 
24 1 9.896 7.151 2.801 
49 1 12.741 12.741 12.741 
50 1 13.443 13.443 13.443 
51 1 12.74 11.401 11.401 
52 1 13.443 10.699 10.699 
53 1 11.401 11.401 12.741 
54 1 10.699 10.699 13.443 
55 1 11.401 12.74 11.401 
56 1 10.699 13.443 10.699 
ITEM: TIMESTEP
10
ITEM: NUMBER OF ATOMS
65
ITEM: BOX BOUNDS pp pp pp
0.0000000000000000e+00 1.4190000000000000e+01
0.0000000000000000e+00 1.4190000000000000e+01
0.0000000000000000e+00 1.4190000000000000e+01
ITEM: ATOMS id type x y z 
57 1 2.06932 0.78902 2.06449 
58 1 2.78702 0.0689775 2.78295 
59 1 0.785229 0.783159 0.785779 
60 1 0.0705828 0.0686172 0.0688513 
61 1 0.785836 2.07096 2.07351 
62 1 0.0693358 2.78805 2.78826 
63 1 2.07328 2.07084 0.7859 
64 1 2.78839 2.7882 0.069112 
41 1 4.32995 4.33034 12.7179 
42 1 3.61396 3.61356 13.4342 
43 1 4.3309 5.62242 11.4237 
44 1 3.61403 6.33876 10.7097 
45 1 5.62216 5.62294 12.717 
46 1 6.33791 6.33689 13.4337 
47 1 5.62115 4.33096 11.424 
48 1 6.33864 3.61386 10.7097 
25 1 4.41551 12.6424 4.34806 
26 1 3.53335 13.5105 3.58606 
27 1 5.61279 11.4329 4.35789 
28 1 6.33945 10.7107 3.62177 
29 1 5.70057 12.6962 5.64968 
30 1 6.3405 13.4333 6.3378 
31 1 4.35513 11.3273 5.65795 
32 1 3.63163 10.7008 6.34114 
65 2 3.48981 13.3366 5.34334 
1 1 0.778009 9.16459 9.17151 
2 1 0.0693911 9.88347 9.88564 
3 1 2.07079 7.87462 9.17145 
4 1 2.787 7.16299 9.88553 
5 1 0.780225 7.87546 7.88095 
6 1 0.0662559 7.16117 7.165 
7 1 2.09468 9.19722 7.85035 
8 1 2.80875 9.90044 7.14738 
33 1 12.7175 4.33023 4.3295 
34 1 13.434 3.61367 3.6137 
35 1 11.4235 4.33099 5.62066 
36 1 10.7096 3.61383 6.3385 
37 1 12.7183 5.62357 5.62104 
38 1 13.4328 6.3373 6.33842 
39 1 11.4238 5.62165 4.33087 
40 1 10.7096 6.33853 3.6138 
9 1 9.17364 0.785497 9.1736 
10 1 9.88467 0.0708658 9.88467 
11 1 9.17291 2.07967 7.88092 
12 1 9.88568 2.7888 7.16613 
13 1 7.84588 0.751054 7.84834 
14 1 7.14505 0.051106 7.14307 
15 1 7.88098 2.07959 9.17284 
16 1 7.16603 2.78887 9.88572 
17 1 9.16847 9.1686 0.781036 
18 1 9.88511 9.88513 0.0698863 
19 1 7.87281 9.17031 2.07517 
20 1 7.16513 9.88682 2.7896 
21 1 7.87783 7.87842 0.782041 
22 1 7.16216 7.16202 0.0684133 
23 1 9.16801 7.87746 2.07537 
24 1 9.88545 7.16392 2.788 
49 1 12.7179 12.7171 12.7177 
50 1 13.432 13.4341 13.4338 
51 1 12.7159 11.4244 11.4243 
52 1 13.4332 10.709 10.7093 
53 1 11.4246 11.4246 12.7165 
54 1 10.7093 10.7092 13.4335 
55 1 11.4246 12.7151 11.4252 
56 1 10.7089 13.4332 10.7091 
ITEM: TIMESTEP
20
ITEM: NUMBER OF ATOMS
65
ITEM: BOX BOUNDS pp pp pp
0.0000000000000000e+00 1.4190000000000000e+01
0.0000000000000000e+00 1.4190000000000000e+01
0.0000000000000000e+00 1.4190000000000000e+01
ITEM: ATOMS id type x y z 
57 1 2.04416 0.814335 2.02354 
58 1 2.76041 0.098333 2.76311 
59 1 0.786858 0.774852 0.785763 
60 1 0.0676994 0.0629946 0.0671688 
61 1 0.785162 2.07094 2.07913 
62 1 0.0745504 2.78785 2.80425 
63 1 2.07881 2.07072 0.78553 
64 1 2.80058 2.78798 0.0690339 
41 1 4.32523 4.32995 12.7199 
42 1 3.6138 3.61226 13.4361 
43 1 4.32813 5.62796 11.4227 
44 1 3.61006 6.33972 10.7083 
45 1 5.62257 5.62379 12.7241 
46 1 6.34159 6.33654 13.4321 
47 1 5.62468 4.325 11.4228 
48 1 6.34021 3.61242 10.708 
25 1 4.4251 12.6269 4.39159 
26 1 3.4854 13.5437 3.65585 
27 1 5.6358 11.413 4.34863 
28 1 6.34733 10.6976 3.62506 
29 1 5.72179 12.7006 5.65867 
30 1 6.36023 13.429 6.34548 
31 1 4.36245 11.3006 5.66577 
32 1 3.63373 10.6782 6.35127 
65 2 3.49725 13.3489 5.22696 
1 1 0.779915 9.16321 9.17261 
2 1 0.0674382 9.87704 9.8867 
3 1 2.06626 7.87577 9.1756 
4 1 2.7826 7.15929 9.8816 
5 1 0.778186 7.87382 7.88635 
6 1 0.0676601 7.1615 7.16853 
7 1 2.09882 9.20534 7.84848 
8 1 2.80579 9.89947 7.14309 
33 1 12.723 4.32973 4.32763 
34 1 13.4265 3.61187 3.60412 
35 1 11.4214 4.32303 5.62175 
36 1 10.7069 3.61608 6.3427 
37 1 12.7229 5.62681 5.62198 
38 1 13.4345 6.33933 6.34007 
39 1 11.4218 5.62392 4.32601 
40 1 10.7093 6.33939 3.61196 
9 1 9.1714 0.791781 9.17462 
10 1 9.88617 0.0744881 9.88421 
11 1 9.17593 2.07871 7.88932 
12 1 9.88195 2.78849 7.16596 
13 1 7.84002 0.754495 7.8459 
14 1 7.14646 0.0471125 7.14343 
15 1 7.88818 2.07845 9.17402 
16 1 7.16866 2.79025 9.88392 
17 1 9.16919 9.17586 0.788446 
18 1 9.88339 9.88057 0.0600985 
19 1 7.87539 9.17684 2.06699 
20 1 7.15876 9.88265 2.79965 
21 1 7.87479 7.87673 0.785218 
22 1 7.15869 7.16603 0.0660862 
23 1 9.1674 7.87873 2.07838 
24 1 9.88506 7.16291 2.79022 
49 1 12.7191 12.7233 12.7189 
50 1 13.4342 13.4289 13.4377 
51 1 12.7255 11.4259 11.4233 
52 1 13.4293 10.7024 10.7064 
53 1 11.4244 11.424 12.7242 
54 1 10.7079 10.7095 13.4342 
55 1 11.4178 12.7188 11.4247 
56 1 10.711 13.4362 10.7051 
ITEM: TIMESTEP
30
ITEM: NUMBER OF ATOMS
65
ITEM: BOX BOUNDS pp pp pp
0.0000000000000000e+00 1.4190000000000000e+01
0.0000000000000000e+00 1.4190000000000000e+01
0.0000000000000000e+00 1.4190000000000000e+01
ITEM: ATOMS id type x y z 
57 1 2.03859 0.823202 2.00193 
58 1 2.74446 0.111775 2.75924 
59 1 0.784536 0.76551 0.784895 
60 1 0.066615 0.0558109 0.0647428 
61 1 0.789175 2.07056 2.09756 
62 1 0.0560954 2.79156 2.78735 
63 1 2.09419 2.06842 0.784138 
64 1 2.79926 2.79498 0.0659212 
41 1 4.33261 4.33115 12.7179 
42 1 3.6148 3.61662 13.4324 
43 1 4.32741 5.62396 11.4209 
44 1 3.60926 6.34123 10.711 
45 1 5.62353 5.62176 12.7184 
46 1 6.33515 6.33684 13.4384 
47 1 5.62043 4.3235 11.4217 
48 1 6.3434 3.61212 10.7109 
25 1 4.46011 12.5939 4.40811 
26 1 3.43837 13.581 3.69864 
27 1 5.63779 11.4035 4.36391 
28 1 6.35405 10.6914 3.62147 
29 1 5.7277 12.6957 5.65115 
30 1 6.37259 13.4225 6.3475 
31 1 4.37334 11.2918 5.65839 
32 1 3.63395 10.6657 6.35021 
65 2 3.47748 13.3759 5.16251 
1 1 0.774579 9.15522 9.17483 
2 1 0.0664428 9.8786 9.88703 
3 1 2.06187 7.86921 9.17295 
4 1 2.78095 7.16301 9.88897 
5 1 0.777002 7.87109 7.89041 
6 1 0.064871 7.16107 7.17017 
7 1 2.08982 9.21145 7.84636 
8 1 2.81676 9.89088 7.15046 
33 1 12.7127 4.33232 4.32323 
34 1 13.4426 3.6142 3.62542 
35 1 11.4177 4.32565 5.6202 
36 1 10.71 3.60985 6.33964 
37 1 12.7238 5.626 5.61964 
38 1 13.4358 6.33877 6.34021 
39 1 11.4274 5.62267 4.32399 
40 1 10.7064 6.33725 3.61347 
9 1 9.17771 0.794843 9.17211 
10 1 9.88502 0.0774094 9.8883 
11 1 9.17281 2.08179 7.89041 
12 1 9.88941 2.79063 7.17307 
13 1 7.83788 0.762161 7.84874 
14 1 7.15292 0.0456468 7.14655 
15 1 7.88872 2.0799 9.17276 
16 1 7.17287 2.79152 9.88859 
17 1 9.16631 9.17215 0.78202 
18 1 9.88475 9.89155 0.0705004 
19 1 7.87773 9.1687 2.06847 
20 1 7.16634 9.8839 2.78583 
21 1 7.87342 7.88194 0.78219 
22 1 7.15802 7.16022 0.070673 
23 1 9.16889 7.8812 2.07863 
24 1 9.88185 7.16226 2.79376 
49 1 12.7143 12.7171 12.7176 
50 1 13.4324 13.4297 13.4326 
51 1 12.7199 11.4211 11.4247 
52 1 13.4389 10.7105 10.7087 
53 1 11.4266 11.4231 12.719 
54 1 10.7093 10.7111 13.4367 
55 1 11.4245 12.7191 11.4193 
56 1 10.7031 13.4378 10.7136 
ITEM: TIMESTEP
40
ITEM: NUMBER OF ATOMS
65
ITEM: BOX BOUNDS pp pp pp
0.0000000000000000e+00 1.4190000000000000e+01
0.0000000000000000e+00 1.4190000000000000e+01
0.0000000000000000e+00 1.4190000000000000e+01
ITEM: ATOMS id type x y z 
57 1 2.03678 0.825892 1.9946 
58 1 2.73867 0.117228 2.75964 
59 1 0.784697 0.764227 0.78276 
60 1 0.0653801 0.0525346 0.0656485 
61 1 0.785279 2.07103 2.09541 
62 1 0.065678 2.79071 2.80035 
63 1 2.09387 2.07177 0.782938 
64 1 2.80455 2.79195 0.0651089 
41 1 4.33065 4.33432 12.7161 
42 1 3.61886 3.6159 13.4333 
43 1 4.32737 5.62709 11.4226 
44 1 3.60827 6.33874 10.7094 
45 1 5.62258 5.62011 12.7221 
46 1 6.33642 6.33756 13.4357 
47 1 5.62333 4.32286 11.4238 
48 1 6.34107 3.61157 10.709 
25 1 4.47062 12.5835 4.41954 
26 1 3.43315 13.5846 3.70544 
27 1 5.63605 11.4047 4.36066 
28 1 6.35615 10.6889 3.62202 
29 1 5.72943 12.7001 5.6466 
30 1 6.37679 13.4194 6.34629 
31 1 4.37008 11.2897 5.65289 
32 1 3.63923 10.662 6.35021 
65 2 3.47199 13.382 5.15377 
1 1 0.776016 9.15631 9.17492 
2 1 0.0654599 9.87659 9.88735 
3 1 2.06072 7.87119 9.17596 
4 1 2.77885 7.1599 9.88691 
5 1 0.775792 7.87113 7.89144 
6 1 0.0655431 7.15954 7.17182 
7 1 2.09006 9.21219 7.84857 
8 1 2.81395 9.89008 7.14791 
33 1 12.7158 4.33338 4.32777 
34 1 13.432 3.61514 3.61486 
35 1 11.4198 4.32281 5.62019 
36 1 10.7076 3.61244 6.3405 
37 1 12.7245 5.62712 5.61928 
38 1 13.4354 6.33839 6.34048 
39 1 11.4245 5.62146 4.32438 
40 1 10.7091 6.33853 3.61221 
9 1 9.17613 0.796537 9.17537 
10 1 9.88667 0.0781043 9.88726 
11 1 9.17668 2.08103 7.89284 
12 1 9.88681 2.79205 7.17215 
13 1 7.83655 0.763011 7.84946 
14 1 7.15395 0.0460447 7.14672 
15 1 7.89239 2.0809 9.17567 
16 1 7.17096 2.79148 9.88669 
17 1 9.16618 9.17644 0.78483 
18 1 9.88382 9.88865 0.0681216 
19 1 7.87945 9.16931 2.06208 
20 1 7.16834 9.87887 2.79003 
21 1 7.87106 7.88021 0.78514 
22 1 7.158 7.16337 0.068656 
23 1 9.16573 7.88049 2.08143 
24 1 9.88386 7.16409 2.79251 
49 1 12.7133 12.7171 12.7152 
50 1 13.4318 13.4277 13.4336 
51 1 12.7238 11.4244 11.4237 
52 1 13.4352 10.7055 10.7101 
53 1 11.4266 11.4246 12.722 
54 1 10.7097 10.7102 13.4352 
55 1 11.4201 12.7197 11.4225 
56 1 10.708 13.4386 10.7093 
ITEM: TIMESTEP
50
ITEM: NUMBER OF ATOMS
65
ITEM: BOX BOUNDS pp pp pp
0.0000000000000000e+00 1.4190000000000000e+01
0.0000000000000000e+00 1.4190000000000000e+01
0.0000000000000000e+00 1.4190000000000000e+01
ITEM: ATOMS id type x y z 
57 1 2.02765 0.838852 1.95591 
58 1 2.70809 0.145483 2.76578 
59 1 0.779643 0.742128 0.790765 
60 1 0.066218 0.0522568 0.0492826 
61 1 0.774527 2.07689 2.09041 
62 1 0.0772549 2.78478 2.82479 
63 1 2.1095 2.07448 0.780794 
64 1 2.81674 2.79209 0.0604133 
41 1 4.33873 4.33902 12.7109 
42 1 3.62359 3.6235 13.4305 
43 1 4.32379 5.62825 11.4222 
44 1 3.60481 6.33924 10.7098 
45 1 5.62841 5.61858 12.7196 
46 1 6.32874 6.33629 13.4447 
47 1 5.61989 4.31966 11.4211 
48 1 6.34684 3.60935 10.714 
25 1 4.52613 12.5285 4.4838 
26 1 3.39346 13.6164 3.72224 
27 1 5.64053 11.4006 4.3499 
28 1 6.36368 10.6723 3.61161 
29 1 5.74647 12.7267 5.62159 
30 1 6.4058 13.4169 6.34062 
31 1 4.34905 11.2707 5.62375 
32 1 3.64873 10.6359 6.34737 
65 2 3.44333 13.413 5.11487 
1 1 0.773927 9.15068 9.17701 
2 1 0.0640006 9.87119 9.8906 
3 1 2.0486 7.86568 9.18041 
4 1 2.77394 7.15885 9.889 
5 1 0.776517 7.8619 7.90074 
6 1 0.0576169 7.16314 7.17694 
7 1 2.08801 9.22005 7.85599 
8 1 2.81118 9.88238 7.14244 
33 1 12.703 4.34464 4.31419 
34 1 13.4367 3.61002 3.63385 
35 1 11.4182 4.31887 5.61911 
36 1 10.7068 3.61253 6.34135 
37 1 12.7305 5.62706 5.61816 
38 1 13.4352 6.33922 6.3414 
39 1 11.429 5.62102 4.3161 
40 1 10.7034 6.33991 3.61608 
9 1 9.18236 0.808521 9.1803 
10 1 9.88759 0.0814922 9.88879 
11 1 9.18296 2.08411 7.90174 
12 1 9.88846 2.79547 7.17671 
13 1 7.83013 0.767737 7.85537 
14 1 7.15961 0.0459289 7.14816 
15 1 7.89465 2.08362 9.17461 
16 1 7.17891 2.79353 9.89383 
17 1 9.16164 9.18194 0.785048 
18 1 9.88259 9.89733 0.0740258 
19 1 7.89455 9.16628 2.04903 
20 1 7.17272 9.8609 2.7872 
21 1 7.86588 7.88456 0.784631 
22 1 7.15097 7.16479 0.0740073 
23 1 9.16559 7.88491 2.08524 
24 1 9.87725 7.16608 2.79877 
49 1 12.7053 12.7059 12.7172 
50 1 13.4288 13.4229 13.4267 
51 1 12.7273 11.4246 11.424 
52 1 13.4365 10.7031 10.7118 
53 1 11.4284 11.421 12.7209 
54 1 10.7106 10.7146 13.4409 
55 1 11.4203 12.7244 11.4223 
56 1 10.7057 13.4403 10.7099 
ITEM: TIMESTEP
60
ITEM: NUMBER OF ATOMS
65
ITEM: BOX BOUNDS pp pp pp
0.0000000000000000e+00 1.4190000000000000e+01
0.0000000000000000e+00 1.4190000000000000e+01
0.0000000000000000e+00 1.4190000000000000e+01
ITEM: ATOMS id type x y z 
57 1 2.00595 0.863244 1.9151 
58 1 2.67721 0.172202 2.76456 
59 1 0.78616 0.752566 0.764893 
60 1 0.0521143 0.0118671 0.0885046 
61 1 0.801071 2.05599 2.12946 
62 1 0.0545305 2.79321 2.79485 
63 1 2.11401 2.0789 0.782342 
64 1 2.8355 2.79292 0.061822 
41 1 4.33485 4.35079 12.7012 
42 1 3.64255 3.61697 13.4325 
43 1 4.33118 5.63339 11.4206 
44 1 3.5941 6.33336 10.7107 
45 1 5.60594 5.61409 12.7441 
46 1 6.35876 6.33782 13.4158 
47 1 5.63299 4.31803 11.4388 
48 1 6.34168 3.60983 10.7071 
25 1 4.54974 12.4994 4.56472 
26 1 3.34314 13.6634 3.70478 
27 1 5.64363 11.3653 4.35263 
28 1 6.3752 10.6686 3.58907 
29 1 5.80945 12.758 5.58446 
30 1 6.42838 13.4587 6.31526 
31 1 4.31873 11.2066 5.59101 
32 1 3.62108 10.6142 6.32857 
65 2 3.44789 13.4123 5.08929 
1 1 0.772371 9.14445 9.17896 
2 1 0.0648006 9.87532 9.89366 
3 1 2.04649 7.86579 9.18069 
4 1 2.75979 7.15049 9.89867 
5 1 0.751933 7.87781 7.90946 
6 1 0.0758934 7.13521 7.17978 
7 1 2.08544 9.21488 7.8735 
8 1 2.80271 9.87371 7.15122 
33 1 12.719 4.32997 4.34789 
34 1 13.4241 3.62817 3.60347 
35 1 11.412 4.32741 5.61379 
36 1 10.7136 3.6099 6.34502 
37 1 12.7074 5.64578 5.61426 
38 1 13.453 6.32211 6.3444 
39 1 11.4069 5.6194 4.33647 
40 1 10.7317 6.34104 3.58671 
9 1 9.17095 0.800494 9.18092 
10 1 9.91161 0.10817 9.8973 
11 1 9.18119 2.09468 7.90887 
12 1 9.90121 2.79187 7.18101 
13 1 7.84683 0.779182 7.86137 
14 1 7.15664 0.0446784 7.18566 
15 1 7.91765 2.08047 9.1988 
16 1 7.15616 2.80028 9.86858 
17 1 9.16268 9.20545 0.80412 
18 1 9.87643 9.89317 0.0597269 
19 1 7.89666 9.12648 2.05524 
20 1 7.19694 9.88676 2.75676 
21 1 7.84281 7.88624 0.804694 
22 1 7.14836 7.16846 0.0674326 
23 1 9.14567 7.8899 2.10779 
24 1 9.88383 7.16723 2.79826 
49 1 12.705 12.7107 12.6965 
50 1 13.4252 13.4139 13.4293 
51 1 12.7265 11.4242 11.4262 
52 1 13.4364 10.6981 10.7137 
53 1 11.4354 11.4323 12.736 
54 1 10.7072 10.705 13.429 
55 1 11.4104 12.7104 11.4208 
56 1 10.7123 13.4518 10.713 
ITEM: TIMESTEP
70
ITEM: NUMBER OF ATOMS
65
ITEM: BOX BOUNDS pp pp pp
0.0000000000000000e+00 1.4190000000000000e+01
0.0000000000000000e+00 1.4190000000000000e+01
0.0000000000000000e+00 1.4190000000000000e+01
ITEM: ATOMS id type x y z 
57 1 1.97398 0.895876 1.87652 
58 1 2.69007 0.158755 2.78264 
59 1 0.782365 0.737302 0.772142 
60 1 0.0545142 0.0218095 0.0644703 
61 1 0.789271 2.06458 2.1259 
62 1 0.0610727 2.79417 2.80903 
63 1 2.12878 2.07698 0.781466 
64 1 2.83477 2.79847 0.0548671 
41 1 4.34508 4.34687 12.7022 
42 1 3.63733 3.62541 13.4294 
43 1 4.32315 5.62807 11.4231 
44 1 3.60079 6.3361 10.7112 
45 1 5.61623 5.61385 12.734 
46 1 6.34304 6.33885 13.4295 
47 1 5.62724 4.31671 11.434 
48 1 6.3423 3.6134 10.7087 
25 1 4.55699 12.4943 4.57943 
26 1 3.33215 13.6724 3.71292 
27 1 5.65342 11.3563 4.36869 
28 1 6.38789 10.6643 3.59306 
29 1 5.82015 12.7453 5.55209 
30 1 6.41627 13.4465 6.3247 
31 1 4.34359 11.2047 5.56743 
32 1 3.61619 10.6144 6.31218 
65 2 3.42817 13.4298 5.08783 
1 1 0.771332 9.14744 9.1822 
2 1 0.0589524 9.87062 9.89504 
3 1 2.0379 7.85814 9.18683 
4 1 2.76586 7.15269 9.89676 
5 1 0.75611 7.86193 7.91183 
6 1 0.0651959 7.14326 7.18057 
7 1 2.08205 9.21113 7.88621 
8 1 2.79891 9.86727 7.15397 
33 1 12.7138 4.33645 4.3373 
34 1 13.4264 3.62014 3.61565 
35 1 11.4156 4.3225 5.61349 
36 1 10.7099 3.61386 6.34323 
37 1 12.7194 5.6376 5.61438 
38 1 13.4416 6.32914 6.34203 
39 1 11.4172 5.61933 4.32737 
40 1 10.718 6.34022 3.60117 
9 1 9.18458 0.813833 9.18694 
10 1 9.90015 0.0935701 9.89753 
11 1 9.19064 2.09249 7.90994 
12 1 9.89665 2.80042 7.18247 
13 1 7.84793 0.777345 7.87471 
14 1 7.17138 0.0607215 7.17024 
15 1 7.90973 2.08666 9.19288 
16 1 7.16764 2.7987 9.88565 
17 1 9.15859 9.20129 0.795289 
18 1 9.87875 9.9003 0.0706357 
19 1 7.90312 9.13762 2.04513 
20 1 7.18742 9.87006 2.76227 
21 1 7.84193 7.88865 0.799249 
22 1 7.15031 7.16405 0.0704 
23 1 9.15118 7.88751 2.10602 
24 1 9.88313 7.16965 2.80102 
49 1 12.7051 12.7108 12.6933 
50 1 13.4206 13.4016 13.4412 
51 1 12.7292 11.4269 11.4263 
52 1 13.4343 10.6989 10.715 
53 1 11.4326 11.4248 12.727 
54 1 10.7092 10.7126 13.4377 
55 1 11.4162 12.717 11.4213 
56 1 10.7135 13.4506 10.7135 
ITEM: TIMESTEP
80
ITEM: NUMBER OF ATOMS
65
ITEM: BOX BOUNDS pp pp pp
0.0000000000000000e+00 1.4190000000000000e+01
0.0000000000000000e+00 1.4190000000000000e+01
0.0000000000000000e+00 1.4190000000000000e+01
ITEM: ATOMS id type x y z 
57 1 1.94104 0.928144 1.84621 
58 1 2.68819 0.163125 2.76264 
59 1 0.763811 0.704947 0.780626 
60 1 0.0485491 0.0158459 0.0427674 
61 1 0.769335 2.08229 2.11599 
62 1 0.0653938 2.7908 2.84237 
63 1 2.14873 2.09089 0.771157 
64 1 2.85331 2.80916 0.0449029 
41 1 4.35375 4.35666 12.6944 
42 1 3.64704 3.62852 13.423 
43 1 4.32665 5.62662 11.4239 
44 1 3.5936 6.33298 10.7157 
45 1 5.63271 5.61288 12.7173 
46 1 6.32341 6.33558 13.4521 
47 1 5.61172 4.32034 11.4219 
48 1 6.35097 3.61068 10.7226 
25 1 4.56204 12.493 4.60344 
26 1 3.31697 13.6837 3.73474 
27 1 5.66074 11.3658 4.40226 
28 1 6.40145 10.6408 3.59659 
29 1 5.83952 12.7061 5.52088 
30 1 6.42491 13.4669 6.29794 
31 1 4.35949 11.1741 5.54325 
32 1 3.60735 10.5986 6.29412 
65 2 3.40942 13.4461 5.09251 
1 1 0.761204 9.13761 9.1852 
2 1 0.0638823 9.87479 9.89811 
3 1 2.03496 7.85592 9.18937 
4 1 2.75941 7.14589 9.90069 
5 1 0.767515 7.83888 7.91948 
6 1 0.0443275 7.15433 7.18795 
7 1 2.08723 9.21738 7.8975 
8 1 2.79683 9.8624 7.15074 
33 1 12.698 4.35076 4.32274 
34 1 13.4339 3.6134 3.63919 
35 1 11.4131 4.32346 5.60966 
36 1 10.7134 3.61305 6.34281 
37 1 12.7384 5.62082 5.60972 
38 1 13.4227 6.34482 6.34171 
39 1 11.4354 5.61915 4.31021 
40 1 10.6945 6.34076 3.6247 
9 1 9.20267 0.835128 9.19411 
10 1 9.89143 0.0826137 9.90097 
11 1 9.19693 2.09839 7.91694 
12 1 9.9009 2.80567 7.18528 
13 1 7.84889 0.773588 7.90701 
14 1 7.18251 0.0708149 7.15139 
15 1 7.8997 2.09366 9.17817 
16 1 7.18617 2.7983 9.91214 
17 1 9.1525 9.19353 0.784102 
18 1 9.88061 9.92066 0.0897705 
19 1 7.91009 9.14716 2.01982 
20 1 7.19403 9.84459 2.77379 
21 1 7.852 7.89136 0.788561 
22 1 7.13308 7.16757 0.0827553 
23 1 9.16026 7.89129 2.10034 
24 1 9.87442 7.16897 2.80948 
49 1 12.6907 12.6857 12.709 
50 1 13.424 13.4115 13.408 
51 1 12.7235 11.4224 11.4311 
52 1 13.4391 10.7073 10.7133 
53 1 11.4329 11.4163 12.7163 
54 1 10.7089 10.7194 13.4467 
55 1 11.4327 12.7319 11.4255 
56 1 10.7041 13.4373 10.7132 
ITEM: TIMESTEP
90
ITEM: NUMBER OF ATOMS
65
ITEM: BOX BOUNDS pp pp pp
0.0000000000000000e+00 1.4190000000000000e+01
0.0000000000000000e+00 1.4190000000000000e+01
0.0000000000000000e+00 1.4190000000000000e+01
ITEM: ATOMS id type x y z 
57 1 1.93573 0.933095 1.84252 
58 1 2.6881 0.163664 2.76011 
59 1 0.760865 0.707024 0.775238 
60 1 0.0455959 0.00735462 0.0482285 
61 1 0.7723 2.07841 2.12257 
62 1 0.0623341 2.79314 2.83574 
63 1 2.15295 2.09032 0.769053 
64 1 2.85611 2.81658 0.0476568 
41 1 4.35743 4.35655 12.6888 
42 1 3.65102 3.63293 13.4222 
43 1 4.32487 5.62872 11.4231 
44 1 3.5903 6.32873 10.7139 
45 1 5.62706 5.61333 12.7253 
46 1 6.33034 6.33766 13.4461 
47 1 5.61872 4.31944 11.4287 
48 1 6.34731 3.61057 10.7153 
25 1 4.55399 12.4952 4.60349 
26 1 3.30905 13.6915 3.73116 
27 1 5.64678 11.379 4.42806 
28 1 6.41555 10.6221 3.59005 
29 1 5.85462 12.7014 5.50712 
30 1 6.42792 13.4647 6.29331 
31 1 4.36343 11.1637 5.52777 
32 1 3.60501 10.5908 6.29457 
65 2 3.40251 13.4502 5.09359 
1 1 0.768314 9.14275 9.18346 
2 1 0.0576607 9.86745 9.89805 
3 1 2.02828 7.85225 9.18877 
4 1 2.76435 7.15256 9.90197 
5 1 0.759186 7.84412 7.92537 
6 1 0.0506309 7.14774 7.18787 
7 1 2.08196 9.21442 7.90402 
8 1 2.79586 9.85875 7.155 
33 1 12.7006 4.34799 4.33205 
34 1 13.4289 3.61864 3.63332 
35 1 11.415 4.32006 5.60992 
36 1 10.7101 3.61673 6.34241 
37 1 12.7308 5.62793 5.60997 
38 1 13.4311 6.33944 6.34426 
39 1 11.4265 5.61913 4.317 
40 1 10.7015 6.34108 3.61269 
9 1 9.19658 0.828077 9.19296 
10 1 9.89743 0.0909331 9.90187 
11 1 9.19968 2.09531 7.91952 
12 1 9.90061 2.8102 7.18657 
13 1 7.85353 0.783387 7.91961 
14 1 7.1936 0.0778268 7.15797 
15 1 7.90457 2.09115 9.18616 
16 1 7.18149 2.79936 9.90292 
17 1 9.15171 9.20331 0.792987 
18 1 9.87928 9.91212 0.079823 
19 1 7.91405 9.13708 2.01377 
20 1 7.20244 9.84695 2.7665 
21 1 7.84295 7.89283 0.796267 
22 1 7.13879 7.16756 0.0770996 
23 1 9.15398 7.89073 2.10543 
24 1 9.87602 7.1739 2.81043 
49 1 12.69 12.6881 12.6985 
50 1 13.4189 13.4033 13.4133 
51 1 12.7283 11.4268 11.4286 
52 1 13.4362 10.6993 10.7149 
53 1 11.4322 11.4182 12.722 
54 1 10.7084 10.7187 13.4463 
55 1 11.4262 12.7253 11.4242 
56 1 10.7095 13.4454 10.7137 
ITEM: TIMESTEP
100
ITEM: NUMBER OF ATOMS
65
ITEM: BOX BOUNDS pp pp pp
0.0000000000000000e+00 1.4190000000000000e+01
0.0000000000000000e+00 1.4190000000000000e+01
0.0000000000000000e+00 1.4190000000000000e+01
ITEM: ATOMS id type x y z 
57 1 1.93232 0.936817 1.83915 
58 1 2.68726 0.164897 2.75705 
59 1 0.759734 0.706351 0.772081 
60 1 0.0412264 0.00384453 0.0499076 
61 1 0.773535 2.07666 2.12767 
62 1 0.0579565 2.7965 2.82995 
63 1 2.15767 2.09675 0.769982 
64 1 2.85814 2.81503 0.0466727 
41 1 4.36094 4.36079 12.6889 
42 1 3.653 3.63252 13.417 
43 1 4.32201 5.62584 11.4225 
44 1 3.5962 6.33713 10.7144 
45 1 5.62745 5.61337 12.7255 
46 1 6.33142 6.3387 13.4455 
47 1 5.62092 4.3199 11.4286 
48 1 6.34742 3.61067 10.7164 
25 1 4.54948 12.4951 4.60866 
26 1 3.30484 13.6953 3.73158 
27 1 5.64196 11.3826 4.44318 
28 1 6.41973 10.6202 3.59208 
29 1 5.87366 12.7092 5.49468 
30 1 6.43917 13.4657 6.28918 
31 1 4.36598 11.1526 5.50534 
32 1 3.60605 10.5871 6.29161 
65 2 3.39898 13.4533 5.09222 
1 1 0.767826 9.14109 9.18334 
2 1 0.0580257 9.87011 9.89865 
3 1 2.02906 7.85401 9.19 
4 1 2.75812 7.1441 9.90094 
5 1 0.755391 7.84637 7.92626 
6 1 0.0517527 7.14221 7.19025 
7 1 2.07218 9.20628 7.91944 
8 1 2.79008 9.85279 7.15753 
33 1 12.7017 4.34718 4.33727 
34 1 13.4269 3.62066 3.63259 
35 1 11.4135 4.3227 5.60945 
36 1 10.7105 3.61603 6.34313 
37 1 12.7286 5.6331 5.60903 
38 1 13.4329 6.33515 6.34525 
39 1 11.4251 5.6199 4.31673 
40 1 10.7022 6.34302 3.61443 
9 1 9.19273 0.823855 9.19268 
10 1 9.90348 0.0951308 9.90353 
11 1 9.20019 2.10068 7.921 
12 1 9.9035 2.80632 7.18647 
13 1 7.859 0.785798 7.92366 
14 1 7.19015 0.0823052 7.16456 
15 1 7.90618 2.09095 9.1875 
16 1 7.1778 2.80054 9.90169 
17 1 9.15209 9.20891 0.797533 
18 1 9.87749 9.911 0.0766644 
19 1 7.9203 9.13258 2.00798 
20 1 7.20358 9.84169 2.76294 
21 1 7.84073 7.89311 0.797208 
22 1 7.13663 7.16845 0.0781883 
23 1 9.15337 7.89376 2.10819 
24 1 9.87428 7.17058 2.80945 
49 1 12.6897 12.688 12.6898 
50 1 13.4153 13.3971 13.4188 
51 1 12.727 11.4241 11.4281 
52 1 13.4367 10.7001 10.7148 
53 1 11.4327 11.4209 12.7251 
54 1 10.7074 10.7152 13.4431 
55 1 11.4215 12.7204 11.4235 
56 1 10.7143 13.4501 10.7146 
ITEM: TIMESTEP
110
ITEM: NUMBER OF ATOMS
65
ITEM: BOX BOUNDS pp pp pp
0.0000000000000000e+00 1.4190000000000000e+01
0.0000000000000000e+00 1.4190000000000000e+01
0.0000000000000000e+00 1.4190000000000000e+01
ITEM: ATOMS id type x y z 
57 1 1.93029 0.938882 1.83682 
58 1 2.68689 0.165454 2.75557 
59 1 0.757683 0.704496 0.772303 
60 1 0.0401493 0.00283138 0.0497107 
61 1 0.773336 2.07716 2.12881 
62 1 0.0564672 2.7969 2.82911 
63 1 2.15973 2.09751 0.769322 
64 1 2.85952 2.8172 0.0470298 
41 1 4.3625 4.36128 12.6865 
42 1 3.65457 3.6339 13.4169 
43 1 4.32305 5.62723 11.4228 
44 1 3.5941 6.33463 10.7136 
45 1 5.62774 5.61373 12.7253 
46 1 6.33156 6.33916 13.4454 
47 1 5.62123 4.32024 11.4289 
48 1 6.34787 3.61107 10.7161 
25 1 4.54871 12.4955 4.61459 
26 1 3.30385 13.6963 3.73147 
27 1 5.64054 11.3847 4.44955 
28 1 6.42163 10.6179 3.59173 
29 1 5.87973 12.7126 5.48707 
30 1 6.44207 13.4673 6.28778 
31 1 4.36653 11.1468 5.49604 
32 1 3.60481 10.5833 6.28889 
65 2 3.39791 13.4551 5.0919 
1 1 0.768501 9.14274 9.18341 
2 1 0.056924 9.86953 9.89901 
3 1 2.02864 7.85339 9.19044 
4 1 2.75934 7.14491 9.90134 
5 1 0.754883 7.84473 7.92711 
6 1 0.0507032 7.14208 7.19065 
7 1 2.06936 9.20412 7.92517 
8 1 2.78705 9.84884 7.16037 
33 1 12.7024 4.34742 4.33965 
34 1 13.4253 3.62132 3.6317 
35 1 11.4134 4.32277 5.60877 
36 1 10.7104 3.61675 6.34364 
37 1 12.7285 5.63281 5.60879 
38 1 13.4325 6.3357 6.34539 
39 1 11.4246 5.62024 4.31726 
40 1 10.702 6.34306 3.61427 
9 1 9.19404 0.82492 9.19342 
10 1 9.90306 0.094111 9.90329 
11 1 9.20136 2.10134 7.92176 
12 1 9.90394 2.8069 7.18688 
13 1 7.85753 0.78748 7.92835 
14 1 7.19598 0.082747 7.16354 
15 1 7.90583 2.09067 9.18804 
16 1 7.17779 2.80121 9.90159 
17 1 9.15179 9.20972 0.797401 
18 1 9.87728 9.91268 0.0775817 
19 1 7.92201 9.13025 2.00522 
20 1 7.20588 9.8401 2.76229 
21 1 7.83899 7.89375 0.798079 
22 1 7.13597 7.16837 0.0784824 
23 1 9.15254 7.894 2.10929 
24 1 9.87427 7.17138 2.81036 
49 1 12.6889 12.6864 12.6882 
50 1 13.4143 13.3957 13.4183 
51 1 12.727 11.4245 11.4281 
52 1 13.436 10.6988 10.7146 
53 1 11.4327 11.4195 12.7237 
54 1 10.7068 10.7165 13.4441 
55 1 11.4223 12.7206 11.4236 
56 1 10.7138 13.4497 10.7145 
ITEM: TIMESTEP
120
ITEM: NUMBER OF ATOMS
65
ITEM: BOX BOUNDS pp pp pp
0.0000000000000000e+00 1.4190000000000000e+01
0.0000000000000000e+00 1.4190000000000000e+01
0.0000000000000000e+00 1.4190000000000000e+01
ITEM: ATOMS id type x y z 
57 1 1.92982 0.939359 1.83627 
58 1 2.68681 0.165583 2.75524 
59 1 0.757287 0.704053 0.772343 
60 1 0.0397791 0.00268789 0.0497396 
61 1 0.77287 2.07741 2.12843 
62 1 0.0564868 2.79687 2.82939 
63 1 2.16004 2.09797 0.769349 
64 1 2.8601 2.81731 0.0470025 
41 1 4.36284 4.3616 12.6862 
42 1 3.6548 3.63407 13.4168 
43 1 4.32311 5.62732 11.4228 
44 1 3.59409 6.3346 10.7136 
45 1 5.62793 5.61372 12.7252 
46 1 6.33151 6.33931 13.4454 
47 1 5.62134 4.32039 11.4288 
48 1 6.34789 3.61119 10.716 
25 1 4.54868 12.4956 4.61584 
26 1 3.30362 13.6965 3.73138 
27 1 5.6404 11.3851 4.45077 
28 1 6.42192 10.6176 3.59185 
29 1 5.88089 12.7132 5.4855 
30 1 6.44283 13.4677 6.28737 
31 1 4.36665 11.1453 5.49432 
32 1 3.6044 10.5822 6.28834 
65 2 3.39761 13.4556 5.09187 
1 1 0.768339 9.14266 9.18347 
2 1 0.057043 9.86989 9.89899 
3 1 2.02866 7.85341 9.19054 
4 1 2.75925 7.14465 9.9013 
5 1 0.754655 7.84455 7.9273 
6 1 0.0506246 7.14194 7.19074 
7 1 2.06901 9.2038 7.92615 
8 1 2.78637 9.84804 7.16106 
33 1 12.7021 4.34765 4.33944 
34 1 13.4256 3.62123 3.63235 
35 1 11.4133 4.32279 5.60863 
36 1 10.7105 3.6169 6.34373 
37 1 12.7284 5.63297 5.60876 
38 1 13.4325 6.33557 6.3454 
39 1 11.4246 5.62011 4.31707 
40 1 10.7018 6.3434 3.61469 
9 1 9.19401 0.824796 9.19341 
10 1 9.90335 0.0943725 9.90343 
11 1 9.20154 2.10147 7.9219 
12 1 9.9041 2.80704 7.18706 
13 1 7.85718 0.787611 7.92937 
14 1 7.19722 0.0830975 7.16329 
15 1 7.9057 2.09075 9.18787 
16 1 7.17787 2.80111 9.90193 
17 1 9.15171 9.21016 0.797632 
18 1 9.87721 9.91288 0.0775637 
19 1 7.92243 9.12974 2.00466 
20 1 7.20629 9.83975 2.76213 
21 1 7.83873 7.89374 0.798272 
22 1 7.13563 7.16857 0.0785581 
23 1 9.15242 7.89397 2.10935 
24 1 9.87421 7.17155 2.81063 
49 1 12.6888 12.6862 12.6878 
50 1 13.4141 13.3952 13.4182 
51 1 12.7267 11.4242 11.4281 
52 1 13.4361 10.6989 10.7146 
53 1 11.4326 11.4194 12.7236 
54 1 10.7068 10.7164 13.4441 
55 1 11.4222 12.7205 11.4235 
56 1 10.7139 13.4497 10.7146 
ITEM: TIMESTEP
130
ITEM: NUMBER OF ATOMS
65
ITEM: BOX BOUNDS pp pp pp
0.0000000000000000e+00 1.4190000000000000e+01
0.0000000000000000e+00 1.4190000000000000e+01
0.0000000000000000e+00 1.4190000000000000e+01
ITEM: ATOMS id type x y z 
57 1 1.92898 0.940237 1.83525 
58 1 2.68664 0.165825 2.75461 
59 1 0.756387 0.703401 0.772599 
60 1 0.039403 0.00206797 0.049604 
61 1 0.772909 2.07737 2.12904 
62 1 0.0556043 2.79729 2.82859 
63 1 2.16084 2.09873 0.769464 
64 1 2.86079 2.81773 0.0468768 
41 1 4.36335 4.36211 12.6856 
42 1 3.65552 3.63433 13.4164 
43 1 4.32329 5.62732 11.4227 
44 1 3.59391 6.3346 10.7136 
45 1 5.62815 5.61387 12.725 
46 1 6.33144 6.33949 13.4455 
47 1 5.62139 4.32059 11.4288 
48 1 6.34825 3.61142 10.716 
25 1 4.54873 12.4957 4.61829 
26 1 3.30327 13.6969 3.73126 
27 1 5.64011 11.3858 4.45299 
28 1 6.42253 10.6171 3.59212 
29 1 5.88285 12.7143 5.48277 
30 1 6.44478 13.4682 6.28571 
31 1 4.36683 11.1427 5.49137 
32 1 3.60367 10.5806 6.28745 
65 2 3.3971 13.4566 5.09176 
1 1 0.768409 9.14299 9.18349 
2 1 0.0568722 9.87002 9.89906 
3 1 2.02867 7.85322 9.19052 
4 1 2.75919 7.14452 9.90148 
5 1 0.75441 7.84418 7.92757 
6 1 0.0503053 7.14165 7.19102 
7 1 2.06815 9.20357 7.92835 
8 1 2.78559 9.846 7.16156 
33 1 12.7024 4.34761 4.34042 
34 1 13.4252 3.62156 3.63216 
35 1 11.4131 4.32305 5.6085 
36 1 10.7105 3.6169 6.3438 
37 1 12.7283 5.63311 5.60857 
38 1 13.4324 6.33556 6.34553 
39 1 11.4244 5.6202 4.3172 
40 1 10.7017 6.34359 3.61474 
9 1 9.19424 0.824916 9.1935 
10 1 9.90347 0.0944116 9.90359 
11 1 9.20193 2.10189 7.92239 
12 1 9.90431 2.80718 7.18718 
13 1 7.85739 0.788106 7.93067 
14 1 7.1979 0.0832687 7.16397 
15 1 7.90557 2.09068 9.18795 
16 1 7.17776 2.80122 9.90195 
17 1 9.15159 9.21083 0.797982 
18 1 9.877 9.91337 0.0775765 
19 1 7.92325 9.12882 2.00374 
20 1 7.20688 9.83915 2.76167 
21 1 7.83806 7.89398 0.798626 
22 1 7.1353 7.16864 0.0786711 