ITEM: TIMESTEP
0
ITEM: NUMBER OF ATOMS
131
ITEM: BOX BOUNDS xy xz yz pp pp pp
0.0000000000000000e+00 2.3654499999999999e+01 7.8845000000000001e+00
0.0000000000000000e+00 1.3658086643083999e+01 0.0000000000000000e+00
0.0000000000000000e+00 2.5747000000000000e+01 0.0000000000000000e+00
ITEM: ATOMS id type x y z 
18 1 10.522 6.683 2.644 
28 1 5.247 4.273 12.803 
31 1 9.65 6.514 0.446 
62 1 9.171 5.15 12.405 
91 1 9.65 6.514 11.889 
92 1 10.81 6.18 11.007 
106 1 10.522 6.683 9.691 
127 1 10.81 6.18 1.328 
4 1 4.402 5.735 13.319 
5 1 3.307 5.568 14.201 
43 1 4.549 6.796 15.517 
52 1 9.172 5.15 25.677 
66 1 4.402 5.735 24.762 
67 1 5.003 6.76 23.881 
88 1 5.247 4.273 25.278 
107 1 3.307 5.568 23.881 
116 1 4.549 6.796 22.565 
117 1 5.003 6.76 14.201 
11 1 11.272 7.494 3.321 
12 1 10.477 8.871 4.018 
14 1 9.018 11.397 0.446 
15 1 10.114 11.565 1.328 
16 1 8.412 9.024 0.654 
19 1 10.477 8.871 5.569 
29 1 10.927 10.156 3.321 
32 1 8.77 7.648 1.328 
35 1 12.036 9.594 2.644 
45 1 9.231 8.963 3.321 
47 1 12.762 8.702 0.446 
49 1 11.224 11 0.654 
51 1 8.872 10.337 2.644 
53 1 11.272 7.494 9.014 
54 1 10.477 8.871 8.317 
56 1 9.018 11.397 11.889 
57 1 8.418 10.372 11.007 
58 1 11.224 11 11.681 
60 1 12.255 7.901 9.691 
61 1 10.477 8.871 6.766 
73 1 9.231 8.963 9.014 
75 1 12.762 8.702 11.889 
76 1 12.202 10.061 11.007 
79 1 9.224 7.617 9.691 
80 1 8.174 12.859 12.405 
89 1 10.927 10.156 9.014 
93 1 8.412 9.024 11.681 
95 1 9.951 11.095 9.691 
105 1 10.114 11.565 11.007 
109 1 8.77 7.648 11.007 
110 1 12.036 9.594 9.691 
114 1 8.872 10.337 9.691 
119 1 8.418 10.372 1.328 
120 1 12.255 7.901 2.644 
123 1 12.202 10.061 1.328 
124 1 9.224 7.617 2.644 
128 1 9.951 11.095 2.644 
6 1 5.009 8.108 13.527 
13 1 9.663 10.28 25.128 
17 1 9.204 8.965 25.162 
30 1 10.016 7.556 25.128 
34 1 11.289 7.464 25.162 
36 1 8.174 12.859 25.677 
46 1 11.752 8.777 25.128 
50 1 10.937 10.184 25.162 
55 1 9.663 10.28 12.954 
59 1 10.937 10.184 12.919 
74 1 11.752 8.777 12.954 
78 1 11.289 7.464 12.919 
90 1 10.016 7.556 12.954 
94 1 9.204 8.965 12.919 
101 1 5.009 8.108 24.555 
33 1 11.795 6.589 0.654 
77 1 11.795 6.589 11.681 
41 1 17.967 6.132 13.527 
68 1 17.967 6.132 24.554 
103 1 19.24 6.037 22.565 
126 1 19.24 6.037 15.517 
3 1 19.528 6.852 12.254 
7 1 19.987 8.167 12.289 
10 1 15.106 8.528 12.804 
22 1 19.175 9.576 12.254 
26 1 17.902 9.668 12.289 
38 1 17.439 8.356 12.254 
42 1 18.254 6.949 12.289 
44 1 20.019 11.982 12.804 
48 1 12.546 7.4 1.328 
65 1 19.528 6.852 0.081 
69 1 18.254 6.949 0.046 
82 1 17.439 8.356 0.081 
86 1 17.902 9.668 0.046 
96 1 14.084 8.604 12.405 
98 1 19.175 9.576 0.081 
102 1 19.987 8.167 0.046 
113 1 12.546 7.4 11.007 
1 1 17.919 9.638 16.194 
2 1 18.714 8.261 16.892 
8 1 18.669 10.449 15.517 
9 1 18.714 8.261 18.442 
20 1 14.084 8.604 25.677 
21 1 18.264 6.977 16.194 
23 1 19.541 10.618 13.32 
24 1 20.421 9.484 14.201 
25 1 17.396 10.544 13.527 
27 1 17.155 7.538 15.517 
37 1 19.96 8.169 16.194 
39 1 16.429 8.43 13.319 
40 1 16.644 9.732 14.201 
63 1 17.919 9.638 21.888 
64 1 18.714 8.261 21.19 
70 1 16.936 9.231 22.565 
71 1 18.714 8.261 19.64 
72 1 20.019 11.982 25.278 
81 1 19.96 8.169 21.888 
83 1 16.429 8.43 24.762 
84 1 16.989 7.071 23.881 
85 1 17.396 10.544 24.555 
87 1 19.967 9.515 22.565 
97 1 18.263 6.977 21.888 
99 1 19.541 10.618 24.762 
100 1 18.38 10.953 23.881 
104 1 15.106 8.528 25.278 
108 1 18.669 10.449 22.565 
111 1 20.421 9.484 23.881 
112 1 17.155 7.538 22.565 
115 1 16.644 9.732 23.881 
118 1 16.936 9.231 15.517 
121 1 16.989 7.071 14.201 
122 1 19.967 9.515 15.517 
125 1 18.38 10.953 14.201 
129 2 18.669 11.799 15.517 
130 2 18.241 13.005 14.753 
131 3 19.119 13.408 14.605 
ITEM: TIMESTEP
10
ITEM: NUMBER OF ATOMS
131
ITEM: BOX BOUNDS xy xz yz pp pp pp
0.0000000000000000e+00 2.3654499999999999e+01 7.8845000000000001e+00
0.0000000000000000e+00 1.3658086643083999e+01 0.0000000000000000e+00
0.0000000000000000e+00 2.5747000000000000e+01 0.0000000000000000e+00
ITEM: ATOMS id type x y z 
18 1 10.3974 6.70767 2.66373 
28 1 5.16613 4.43641 12.8515 
31 1 9.44726 6.47952 0.415819 
62 1 9.15479 5.23543 12.3809 
91 1 9.44922 6.47624 11.9159 
92 1 10.8471 6.17273 11.0011 
106 1 10.3942 6.72656 9.68518 
127 1 10.8512 6.16405 1.32015 
4 1 4.43232 5.7706 13.2551 
5 1 3.23205 5.56714 14.2132 
43 1 4.59007 6.90921 15.4979 
52 1 9.15537 5.23494 25.701 
66 1 4.44872 5.76699 24.8175 
67 1 5.07067 6.88873 23.9005 
88 1 5.16985 4.43063 25.2298 
107 1 3.22198 5.57624 23.8638 
116 1 4.58506 6.91591 22.5752 
117 1 5.08701 6.89399 14.181 
11 1 11.3493 7.56923 3.34975 
12 1 10.5047 8.84267 4.10414 
14 1 8.98312 11.3479 0.391706 
15 1 10.183 11.5719 1.34168 
16 1 8.45248 8.94801 0.713824 
19 1 10.4741 8.86916 5.54965 
29 1 10.937 10.1523 3.3291 
32 1 8.74783 7.71545 1.2753 
35 1 12.0148 9.57458 2.61783 
45 1 9.21811 8.97385 3.27282 
47 1 12.7746 8.7157 0.529803 
49 1 11.2741 11.0201 0.687691 
51 1 8.84331 10.2229 2.6231 
53 1 11.3432 7.55976 8.99675 
54 1 10.501 8.83781 8.22445 
56 1 8.9882 11.3581 11.9415 
57 1 8.32925 10.2596 11.0403 
58 1 11.3162 10.9291 11.6849 
60 1 12.2528 8.0067 9.64009 
61 1 10.4745 8.87057 6.78564 
73 1 9.21769 8.96852 9.06607 
75 1 12.7381 8.76509 11.7845 
76 1 12.2235 10.0535 11.0158 
79 1 9.22464 7.63925 9.76744 
80 1 8.25753 12.6912 12.3531 
89 1 10.9435 10.1591 8.99568 
93 1 8.45038 8.93477 11.6375 
95 1 10.0194 11.0693 9.68652 
105 1 10.2015 11.5679 11.0044 
109 1 8.75036 7.70661 11.0512 
110 1 12.045 9.57761 9.75565 
114 1 8.83643 10.2184 9.70099 
119 1 8.3425 10.2498 1.30051 
120 1 12.2575 8.01299 2.69881 
123 1 12.1892 10.0756 1.21362 
124 1 9.20253 7.64936 2.56464 
128 1 10.0297 11.0557 2.64768 
6 1 4.96461 8.18191 13.5796 
13 1 9.52952 10.3349 25.131 
17 1 9.17158 8.94139 25.1816 
30 1 9.96787 7.67787 25.0938 
34 1 11.2998 7.47971 25.129 
36 1 8.25487 12.6955 25.7263 
46 1 11.6957 8.75736 25.0572 
50 1 11.105 10.1263 25.2546 
55 1 9.60217 10.2971 12.9686 
59 1 10.9905 10.1075 12.8919 
74 1 11.666 8.8238 12.997 
78 1 11.2984 7.50362 12.944 
90 1 9.96018 7.68569 12.9886 
94 1 9.18839 8.95093 12.8912 
101 1 4.98483 8.18083 24.4855 
33 1 11.74 6.56554 0.677527 
77 1 11.7362 6.57199 11.6625 
41 1 17.9119 6.14642 13.5385 
68 1 17.9015 6.16953 24.5258 
103 1 19.1648 6.06882 22.5715 
126 1 19.1782 6.05553 15.5057 
3 1 19.6167 6.79954 12.2583 
7 1 20.0069 8.18298 12.3168 
10 1 15.1405 8.48391 12.8319 
22 1 19.2255 9.44752 12.223 
26 1 17.9 9.64433 12.2332 
38 1 17.513 8.33091 12.182 
42 1 18.1622 7.02003 12.3513 
44 1 20.0435 11.9103 12.8216 
48 1 12.5966 7.51255 1.37867 
65 1 19.6482 6.76006 0.0943981 
69 1 18.2147 7.06027 -0.0162158 
82 1 17.5206 8.34683 0.147611 
86 1 17.8852 9.68357 0.0932093 
96 1 14.0282 8.65049 12.3662 
98 1 19.2122 9.4589 0.0925634 
102 1 19.9231 8.14888 0.0525149 
113 1 12.593 7.51811 10.9577 
1 1 17.8785 9.56224 16.217 
2 1 18.6788 8.32839 16.9814 
8 1 18.8032 10.5447 15.5928 
9 1 18.7138 8.26554 18.448 
20 1 14.0426 8.64421 25.7106 
21 1 18.2536 6.98157 16.2179 
23 1 19.7306 10.6614 13.3077 
24 1 20.4214 9.41808 14.1814 
25 1 17.408 10.5864 13.5053 
27 1 17.1582 7.54761 15.4516 
37 1 19.9684 8.18366 16.1201 
39 1 16.4253 8.38175 13.4084 
40 1 16.5796 9.62878 14.2543 
63 1 17.8613 9.5713 21.8639 
64 1 18.6997 8.29468 21.1117 
70 1 16.9319 9.10312 22.5137 
71 1 18.7182 8.26217 19.6397 
72 1 20.0351 11.8956 25.2532 
81 1 19.9597 8.17574 21.9473 
83 1 16.4279 8.3832 24.6569 
84 1 16.9999 7.0774 23.9176 
85 1 17.444 10.5746 24.5208 
87 1 19.9619 9.47454 22.6339 
97 1 18.2358 6.98376 21.8773 
99 1 19.7392 10.6431 24.7974 
100 1 18.3503 10.9657 23.8759 
104 1 15.1445 8.48717 25.2441 
108 1 18.8001 10.4017 22.5539 
111 1 20.4306 9.41922 23.9257 
112 1 17.1715 7.55318 22.6426 
115 1 16.5923 9.61856 23.8306 
118 1 16.9228 9.11076 15.5956 
121 1 16.9791 7.06673 14.155 
122 1 19.9796 9.43783 15.4243 
125 1 18.3796 10.935 14.1544 
129 2 18.6878 11.6915 15.562 
130 2 18.242 13.0338 14.752 
131 3 19.1127 13.4047 14.6075 
ITEM: TIMESTEP
20
ITEM: NUMBER OF ATOMS
131
ITEM: BOX BOUNDS xy xz yz pp pp pp
0.0000000000000000e+00 2.3654499999999999e+01 7.8845000000000001e+00
0.0000000000000000e+00 1.3658086643083999e+01 0.0000000000000000e+00
0.0000000000000000e+00 2.5747000000000000e+01 0.0000000000000000e+00
ITEM: ATOMS id type x y z 
18 1 10.3937 6.75519 2.63686 
28 1 5.14387 4.48535 12.8624 
31 1 9.44602 6.50382 0.416354 
62 1 9.13982 5.24793 12.3788 
91 1 9.44397 6.50122 11.9126 
92 1 10.8156 6.17996 10.9763 
106 1 10.3917 6.75272 9.69908 
127 1 10.8131 6.17574 1.35968 
4 1 4.43211 5.79781 13.2551 
5 1 3.22755 5.57529 14.2064 
43 1 4.58384 6.9264 15.4903 
52 1 9.14085 5.24982 25.7037 
66 1 4.44341 5.78126 24.8107 
67 1 5.06304 6.90553 23.8957 
88 1 5.1507 4.47442 25.2182 
107 1 3.21547 5.60001 23.8796 
116 1 4.58094 6.9343 22.5847 
117 1 5.07816 6.90056 14.1799 
11 1 11.3246 7.56372 3.34731 
12 1 10.4849 8.85088 4.0876 
14 1 8.98589 11.3242 0.388011 
15 1 10.1941 11.5591 1.33699 
16 1 8.43118 8.94092 0.709657 
19 1 10.4732 8.86829 5.55725 
29 1 10.9553 10.1341 3.3247 
32 1 8.74374 7.69319 1.28713 
35 1 12.0108 9.59689 2.56615 
45 1 9.23293 8.94615 3.26432 
47 1 12.7461 8.73823 0.521809 
49 1 11.2972 11.0007 0.678541 
51 1 8.84514 10.1938 2.62076 
53 1 11.3239 7.5597 8.9894 
54 1 10.483 8.85644 8.24745 
56 1 8.99043 11.3399 11.9221 
57 1 8.35538 10.2499 11.0299 
58 1 11.323 10.9371 11.6769 
60 1 12.2611 8.01252 9.63039 
61 1 10.4732 8.86953 6.77716 
73 1 9.23297 8.94854 9.07461 
75 1 12.7171 8.78286 11.7864 
76 1 12.235 10.0554 11.0156 
79 1 9.22811 7.65582 9.77168 
80 1 8.28166 12.6392 12.339 
89 1 10.9451 10.1412 9.0054 
93 1 8.41592 8.93438 11.6275 
95 1 10.0289 11.0567 9.68943 
105 1 10.2071 11.5275 11.0168 
109 1 8.74865 7.68319 11.044 
110 1 12.0345 9.6037 9.73989 
114 1 8.84224 10.1968 9.72 
119 1 8.34508 10.2371 1.30571 
120 1 12.257 8.03148 2.70623 
123 1 12.1907 10.0601 1.26397 
124 1 9.22442 7.65664 2.56249 
128 1 10.0289 11.0565 2.64759 
6 1 4.98872 8.18434 13.5799 
13 1 9.60281 10.2928 25.1508 
17 1 9.17807 8.95149 25.172 
30 1 9.93902 7.69669 25.0915 
34 1 11.2851 7.48582 25.126 
36 1 8.27436 12.6494 25.7362 
46 1 11.6998 8.80125 25.0864 
50 1 11.0482 10.1253 25.2488 
55 1 9.61338 10.2849 12.9806 
59 1 10.9884 10.1154 12.8882 
74 1 11.6748 8.84105 12.9869 
78 1 11.2831 7.50949 12.9462 
90 1 9.93644 7.69567 12.9926 
94 1 9.18757 8.94188 12.9051 
101 1 4.99055 8.18966 24.4979 
33 1 11.7458 6.5805 0.680789 
77 1 11.7419 6.59028 11.6647 
41 1 17.8936 6.13501 13.5516 
68 1 17.8861 6.17679 24.5269 
103 1 19.1596 6.07737 22.558 
126 1 19.1663 6.08035 15.5237 
3 1 19.592 6.83019 12.2747 
7 1 20.0192 8.18109 12.2997 
10 1 15.1353 8.47915 12.8335 
22 1 19.2526 9.43369 12.2182 
26 1 17.9051 9.63307 12.2298 
38 1 17.4934 8.32937 12.1998 
42 1 18.1484 6.9998 12.3716 
44 1 20.0614 11.9025 12.8191 
48 1 12.585 7.51774 1.38597 
65 1 19.6149 6.78352 0.0957381 
69 1 18.23 7.0438 0.00639018 
82 1 17.516 8.33994 0.123926 
86 1 17.8921 9.66394 0.090243 
96 1 14.0319 8.65897 12.3654 
98 1 19.2296 9.44496 0.0938171 
102 1 19.9556 8.16193 0.0477806 
113 1 12.582 7.52411 10.954 
1 1 17.8654 9.54004 16.2245 
2 1 18.685 8.31268 16.959 
8 1 18.8049 10.5449 15.5927 
9 1 18.7145 8.26849 18.4357 
20 1 14.0456 8.65201 25.7105 
21 1 18.2387 6.99849 16.1923 
23 1 19.7295 10.641 13.3061 
24 1 20.4352 9.43334 14.1805 
25 1 17.4126 10.5611 13.5282 
27 1 17.1805 7.52713 15.4512 
37 1 19.9618 8.19169 16.1251 
39 1 16.451 8.38696 13.4106 
40 1 16.6043 9.60915 14.2582 
63 1 17.866 9.56793 21.8627 
64 1 18.7049 8.27815 21.1233 
70 1 16.9319 9.11393 22.5049 
71 1 18.7195 8.26255 19.6541 
72 1 20.0498 11.8845 25.2523 
81 1 19.959 8.18668 21.9466 
83 1 16.452 8.36734 24.6691 
84 1 16.9835 7.0718 23.9119 
85 1 17.4389 10.5563 24.5233 
87 1 19.9608 9.47504 22.644 
97 1 18.2427 6.99317 21.8758 
99 1 19.7452 10.6188 24.7968 
100 1 18.3775 10.9557 23.8503 
104 1 15.1473 8.47919 25.2408 
108 1 18.8009 10.3814 22.5692 
111 1 20.4406 9.42929 23.9268 
112 1 17.164 7.52874 22.6315 
115 1 16.6072 9.61159 23.8225 
118 1 16.9325 9.10998 15.587 
121 1 17.0003 7.06495 14.1336 
122 1 19.9874 9.43549 15.4234 
125 1 18.3839 10.9224 14.1392 
129 2 18.6947 11.6816 15.5775 
130 2 18.2391 13.0411 14.7525 
131 3 19.1137 13.4063 14.6086 
ITEM: TIMESTEP
30
ITEM: NUMBER OF ATOMS
131
ITEM: BOX BOUNDS xy xz yz pp pp pp
0.0000000000000000e+00 2.3654499999999999e+01 7.8845000000000001e+00
0.0000000000000000e+00 1.3658086643083999e+01 0.0000000000000000e+00
0.0000000000000000e+00 2.5747000000000000e+01 0.0000000000000000e+00
ITEM: ATOMS id type x y z 
18 1 10.3867 6.77054 2.64693 
28 1 5.11266 4.56223 12.8767 
31 1 9.42087 6.53468 0.415076 
62 1 9.10451 5.2616 12.3786 
91 1 9.41766 6.5335 11.915 
92 1 10.8008 6.19762 10.9765 
106 1 10.3849 6.76613 9.69114 
127 1 10.7959 6.19198 1.36142 
4 1 4.43051 5.82849 13.2609 
5 1 3.21514 5.59143 14.2156 
43 1 4.57373 6.94859 15.4835 
52 1 9.10698 5.26826 25.7047 
66 1 4.44197 5.8036 24.8059 
67 1 5.06578 6.93874 23.8949 
88 1 5.12294 4.54344 25.2001 
107 1 3.18884 5.63728 23.8792 
116 1 4.56774 6.95192 22.5934 
117 1 5.08243 6.93192 14.1811 
11 1 11.3228 7.58633 3.35911 
12 1 10.4883 8.85324 4.09176 
14 1 8.98928 11.2996 0.39507 
15 1 10.2069 11.5371 1.33948 
16 1 8.39383 8.92053 0.698723 
19 1 10.4704 8.86709 5.55958 
29 1 10.9517 10.1245 3.32325 
32 1 8.70371 7.67168 1.27985 
35 1 12.0213 9.60441 2.57337 
45 1 9.23109 8.93734 3.26908 
47 1 12.7095 8.75299 0.519888 
49 1 11.3205 11.0198 0.678715 
51 1 8.85259 10.1775 2.61078 
53 1 11.3251 7.57969 8.97659 
54 1 10.4807 8.85775 8.24444 
56 1 8.98929 11.3118 11.93 
57 1 8.35931 10.2087 11.0277 
58 1 11.3518 10.9411 11.6844 
60 1 12.2661 8.03212 9.61016 
61 1 10.4697 8.86885 6.77632 
73 1 9.22573 8.93742 9.07441 
75 1 12.6948 8.80261 11.7842 
76 1 12.2647 10.0707 11.0022 
79 1 9.21328 7.65344 9.77846 
80 1 8.31256 12.5656 12.3196 
89 1 10.9477 10.1358 8.99641 
93 1 8.37019 8.91186 11.6394 
95 1 10.0316 11.0506 9.68797 
105 1 10.2294 11.4877 11.0165 
109 1 8.71556 7.66566 11.0551 
110 1 12.0537 9.61629 9.72829 
114 1 8.85594 10.1836 9.72561 
119 1 8.3418 10.1975 1.30794 
120 1 12.2583 8.05243 2.71873 
123 1 12.2145 10.0711 1.25218 
124 1 9.21311 7.65405 2.55679 
128 1 10.0301 11.0488 2.65542 
6 1 5.0262 8.20555 13.5731 
13 1 9.63558 10.2585 25.147 
17 1 9.1488 8.94552 25.1599 
30 1 9.92148 7.71432 25.0713 
34 1 11.2654 7.49346 25.1213 
36 1 8.30646 12.5694 25.7518 
46 1 11.711 8.79996 25.1135 
50 1 11.0621 10.1533 25.2466 
55 1 9.62181 10.2569 13.0002 
59 1 10.9898 10.1298 12.8852 
74 1 11.6754 8.84905 12.98 
78 1 11.2621 7.52261 12.9473 
90 1 9.91817 7.71329 13.0095 
94 1 9.16824 8.94131 12.9081 
101 1 5.01932 8.20661 24.5094 
33 1 11.7312 6.60592 0.689655 
77 1 11.7262 6.61795 11.6597 
41 1 17.8743 6.10589 13.5503 
68 1 17.8642 6.19458 24.5396 
103 1 19.1617 6.08131 22.5553 
126 1 19.1675 6.08552 15.5274 
3 1 19.5567 6.86916 12.2742 
7 1 20.048 8.18592 12.2868 
10 1 15.1357 8.46853 12.8372 
22 1 19.2703 9.41576 12.2022 
26 1 17.9206 9.61797 12.2178 
38 1 17.4788 8.32094 12.2349 
42 1 18.131 6.98013 12.3683 
44 1 20.0997 11.8869 12.814 
48 1 12.569 7.54326 1.39015 
65 1 19.5999 6.81133 0.118362 
69 1 18.2288 7.02691 0.0302769 
82 1 17.5049 8.32211 0.0946088 
86 1 17.9097 9.6456 0.0880858 
96 1 14.0345 8.67145 12.3623 
98 1 19.2489 9.43612 0.105342 
102 1 19.9847 8.16739 0.0603703 
113 1 12.5631 7.55233 10.9447 
1 1 17.8693 9.52214 16.242 
2 1 18.683 8.31437 16.9585 
8 1 18.808 10.5293 15.5929 
9 1 18.7163 8.2727 18.431 
20 1 14.0502 8.66467 25.7106 
21 1 18.2395 7.00991 16.1944 
23 1 19.7451 10.6172 13.2988 
24 1 20.4669 9.44515 14.1782 
25 1 17.4304 10.527 13.5366 
27 1 17.1669 7.5161 15.443 
37 1 19.964 8.20521 16.1282 
39 1 16.4826 8.37752 13.3941 
40 1 16.6123 9.5788 14.263 
63 1 17.8643 9.55059 21.8535 
64 1 18.705 8.27735 21.119 
70 1 16.9295 9.09787 22.4861 
71 1 18.7218 8.26329 19.6499 
72 1 20.0838 11.8714 25.2542 
81 1 19.9644 8.19662 21.9423 
83 1 16.4903 8.34387 24.6729 
84 1 16.9494 7.05707 23.8922 
85 1 17.4564 10.531 24.5191 
87 1 19.9748 9.47613 22.6503 
97 1 18.2415 6.99807 21.8714 
99 1 19.7705 10.5891 24.8025 
100 1 18.3882 10.9358 23.8458 
104 1 15.152 8.46628 25.2373 
108 1 18.8062 10.3654 22.5635 
111 1 20.4783 9.45044 23.9339 
112 1 17.1449 7.51734 22.616 
115 1 16.6265 9.58368 23.8171 
118 1 16.9444 9.09184 15.594 
121 1 16.977 7.05714 14.1309 
122 1 19.9943 9.4501 15.4171 
125 1 18.4071 10.9028 14.127 
129 2 18.7109 11.6646 15.6168 
130 2 18.2337 13.056 14.7539 
131 3 19.115 13.4084 14.6109 
ITEM: TIMESTEP
40
ITEM: NUMBER OF ATOMS
131
ITEM: BOX BOUNDS xy xz yz pp pp pp
0.0000000000000000e+00 2.3654499999999999e+01 7.8845000000000001e+00
0.0000000000000000e+00 1.3658086643083999e+01 0.0000000000000000e+00
0.0000000000000000e+00 2.5747000000000000e+01 0.0000000000000000e+00
ITEM: ATOMS id type x y z 
18 1 10.3764 6.7945 2.65339 
28 1 5.08396 4.65226 12.8871 
31 1 9.37462 6.5642 0.410298 
62 1 9.04206 5.28585 12.3774 
91 1 9.37695 6.56018 11.9283 
92 1 10.774 6.23566 10.9725 
106 1 10.375 6.79486 9.68722 
127 1 10.7632 6.22291 1.36745 
4 1 4.41356 5.88486 13.274 
5 1 3.18804 5.61513 14.2306 
43 1 4.56963 6.97591 15.472 
52 1 9.04459 5.29287 25.7049 
66 1 4.42948 5.85068 24.8011 
67 1 5.07343 6.99191 23.8954 
88 1 5.09676 4.62311 25.1797 
107 1 3.15345 5.68343 23.8781 
116 1 4.56242 6.97284 22.6055 
117 1 5.09597 6.98663 14.1879 
11 1 11.3232 7.61052 3.37682 
12 1 10.492 8.8393 4.10096 
14 1 9.00516 11.2409 0.402515 
15 1 10.2334 11.5161 1.35765 
16 1 8.33936 8.88415 0.676263 
19 1 10.4666 8.86508 5.55967 
29 1 10.9552 10.121 3.32254 
32 1 8.64287 7.64707 1.27692 
35 1 12.041 9.6282 2.5716 
45 1 9.22583 8.924 3.26409 
47 1 12.6942 8.7757 0.519837 
49 1 11.3508 11.048 0.671928 
51 1 8.85465 10.1506 2.60145 
53 1 11.3245 7.598 8.96257 
54 1 10.4833 8.8428 8.23542 
56 1 9.00881 11.2474 11.9394 
57 1 8.35004 10.1443 11.0244 
58 1 11.3887 10.9401 11.6841 
60 1 12.2706 8.06238 9.58345 
61 1 10.4635 8.86721 6.77862 
73 1 9.22735 8.9293 9.07836 
75 1 12.6834 8.83944 11.7736 
76 1 12.3114 10.0959 10.9837 
79 1 9.19087 7.64943 9.78912 
80 1 8.33904 12.4862 12.3018 
89 1 10.9486 10.1274 8.99283 
93 1 8.30969 8.87964 11.6626 
95 1 10.0418 11.0395 9.69189 
105 1 10.2651 11.4454 11.0127 
109 1 8.65467 7.63992 11.0591 
110 1 12.0783 9.64191 9.70714 
114 1 8.85906 10.1628 9.73694 
119 1 8.3318 10.1372 1.31116 
120 1 12.2606 8.08192 2.73432 
123 1 12.2528 10.0944 1.25422 
124 1 9.18152 7.65605 2.54784 
128 1 10.0246 11.0414 2.65424 
6 1 5.0816 8.23916 13.554 
13 1 9.66221 10.2214 25.1448 
17 1 9.12177 8.94427 25.1462 
30 1 9.90921 7.72899 25.0381 
34 1 11.2355 7.49146 25.1208 
36 1 8.33691 12.4741 25.7646 
46 1 11.7058 8.80207 25.1227 
50 1 11.0905 10.1739 25.2579 
55 1 9.62688 10.2355 13.0174 
59 1 10.998 10.1418 12.8926 
74 1 11.6646 8.85541 12.9784 
78 1 11.241 7.53464 12.9506 
90 1 9.90063 7.72653 13.0345 
94 1 9.12749 8.93691 12.9168 
101 1 5.06046 8.23811 24.5278 
33 1 11.7005 6.64433 0.696728 
77 1 11.6972 6.66083 11.6494 
41 1 17.8425 6.0815 13.5471 
68 1 17.838 6.22264 24.5531 
103 1 19.1551 6.09312 22.5575 
126 1 19.1708 6.09437 15.5309 
3 1 19.5293 6.90831 12.2667 
7 1 20.0748 8.18786 12.2774 
10 1 15.1332 8.45453 12.8354 
22 1 19.2747 9.39438 12.1704 
26 1 17.9432 9.62117 12.2048 
38 1 17.4809 8.3198 12.2473 
42 1 18.1091 6.94324 12.3813 
44 1 20.1687 11.8642 12.8034 
48 1 12.5553 7.5874 1.39506 
65 1 19.6087 6.82374 0.152911 
69 1 18.2399 7.0225 0.0491367 
82 1 17.5003 8.31264 0.0825939 
86 1 17.9329 9.63577 0.0871914 
96 1 14.0425 8.68126 12.3624 
98 1 19.2643 9.43109 0.129845 
102 1 19.9951 8.16142 0.0765169 
113 1 12.5364 7.60017 10.9344 
1 1 17.8714 9.50137 16.2627 
2 1 18.6742 8.33438 16.9642 
8 1 18.8182 10.5078 15.5913 
9 1 18.7187 8.27841 18.4281 
20 1 14.061 8.68032 25.706 
21 1 18.2395 7.02261 16.1882 
23 1 19.7862 10.5962 13.2854 
24 1 20.5183 9.46302 14.1706 
25 1 17.4631 10.4733 13.5392 
27 1 17.1556 7.49718 15.4436 
37 1 19.9612 8.22618 16.1196 
39 1 16.4956 8.35138 13.3968 
40 1 16.6233 9.5308 14.2614 
63 1 17.867 9.53251 21.8352 
64 1 18.7025 8.2915 21.1062 
70 1 16.922 9.06748 22.4616 
71 1 18.7259 8.26577 19.6455 
72 1 20.1433 11.848 25.2562 
81 1 19.9625 8.20641 21.9437 
83 1 16.5121 8.30004 24.6577 
84 1 16.8948 7.03982 23.8737 
85 1 17.4859 10.4911 24.5148 
87 1 19.9998 9.47978 22.6605 
97 1 18.2415 7.00631 21.8667 
99 1 19.8165 10.565 24.8095 
100 1 18.4168 10.9021 23.8407 
104 1 15.1532 8.45097 25.2369 
108 1 18.819 10.3363 22.5603 
111 1 20.5382 9.47395 23.9372 
112 1 17.119 7.4928 22.5875 
115 1 16.6465 9.5295 23.8137 
118 1 16.9545 9.0589 15.6054 
121 1 16.9391 7.02867 14.1233 
122 1 20.0102 9.46513 15.4132 
125 1 18.4412 10.8717 14.1163 
129 2 18.7395 11.6371 15.6857 
130 2 18.2257 13.0809 14.7562 
131 3 19.1164 13.4104 14.6153 
ITEM: TIMESTEP
50
ITEM: NUMBER OF ATOMS
131
ITEM: BOX BOUNDS xy xz yz pp pp pp
0.0000000000000000e+00 2.3654499999999999e+01 7.8845000000000001e+00
0.0000000000000000e+00 1.3658086643083999e+01 0.0000000000000000e+00
0.0000000000000000e+00 2.5747000000000000e+01 0.0000000000000000e+00
ITEM: ATOMS id type x y z 
18 1 10.3692 6.82518 2.65643 
28 1 5.08942 4.69511 12.876 
31 1 9.33321 6.57859 0.399996 
62 1 8.95357 5.30806 12.3801 
91 1 9.33849 6.575 11.9342 
92 1 10.7307 6.27873 10.9848 
106 1 10.3537 6.82755 9.68665 
127 1 10.721 6.26655 1.37038 
4 1 4.39376 5.94109 13.2929 
5 1 3.17516 5.63605 14.2344 
43 1 4.57756 6.9955 15.4673 
52 1 8.94934 5.29956 25.6973 
66 1 4.4152 5.90762 24.7978 
67 1 5.08169 7.03093 23.9033 
88 1 5.10389 4.65318 25.1718 
107 1 3.13493 5.7186 23.8848 
116 1 4.56905 6.98613 22.6139 
117 1 5.10209 7.03105 14.1832 
11 1 11.3223 7.61902 3.3697 
12 1 10.5014 8.82299 4.09427 
14 1 9.03213 11.1848 0.424512 
15 1 10.2305 11.4943 1.35269 
16 1 8.28851 8.84085 0.647429 
19 1 10.4613 8.86117 5.55946 
29 1 10.9533 10.1175 3.32058 
32 1 8.57623 7.62824 1.2718 
35 1 12.0613 9.65889 2.57658 
45 1 9.21653 8.91578 3.26698 
47 1 12.705 8.80541 0.526 
49 1 11.3851 11.062 0.670192 
51 1 8.84166 10.1372 2.60143 
53 1 11.3279 7.60225 8.95427 
54 1 10.4887 8.82984 8.23932 
56 1 9.0294 11.1877 11.9294 
57 1 8.33322 10.0943 11.034 
58 1 11.4194 10.9301 11.6833 
60 1 12.2686 8.09684 9.56578 
61 1 10.4572 8.86132 6.78101 
73 1 9.22766 8.92168 9.08341 
75 1 12.6982 8.8806 11.7751 
76 1 12.357 10.1191 10.9649 
79 1 9.1527 7.6484 9.80251 
80 1 8.33556 12.4487 12.3048 
89 1 10.9512 10.1137 8.99242 
93 1 8.26415 8.84542 11.6789 
95 1 10.0379 11.0174 9.6994 
105 1 10.2889 11.4131 11.0178 
109 1 8.59222 7.61206 11.0613 
110 1 12.1081 9.67024 9.68762 
114 1 8.85367 10.1462 9.75099 
119 1 8.32506 10.1027 1.28942 
120 1 12.2509 8.10645 2.74113 
123 1 12.2948 10.1199 1.25696 
124 1 9.14372 7.64547 2.5396 
128 1 10.0209 11.032 2.65915 
6 1 5.12976 8.27892 13.5228 
13 1 9.6666 10.2089 25.1553 
17 1 9.1086 8.93152 25.1427 
30 1 9.89814 7.72697 25.0148 
34 1 11.2226 7.49413 25.1151 
36 1 8.33812 12.4163 25.7585 
46 1 11.6934 8.80124 25.1166 
50 1 11.1098 10.1655 25.2688 
55 1 9.62886 10.2002 13.0137 
59 1 11.0124 10.1539 12.9044 
74 1 11.6509 8.85668 12.9726 
78 1 11.229 7.53983 12.9573 
90 1 9.88979 7.73324 13.0546 
94 1 9.08142 8.91902 12.9431 
101 1 5.09264 8.26942 24.5534 
33 1 11.6732 6.68675 0.714255 
77 1 11.6723 6.70825 11.6363 
41 1 17.8126 6.06173 13.5545 
68 1 17.8156 6.25227 24.5549 
103 1 19.1508 6.11641 22.5641 
126 1 19.1852 6.11213 15.5336 
3 1 19.5198 6.92413 12.2791 
7 1 20.0852 8.19511 12.2749 
10 1 15.1318 8.42953 12.8286 
22 1 19.2872 9.39936 12.1426 
26 1 17.9488 9.60867 12.1891 
38 1 17.4922 8.31442 12.2353 
42 1 18.0874 6.95029 12.3941 
44 1 20.2655 11.8329 12.7906 
48 1 12.5362 7.6237 1.39315 
65 1 19.6228 6.82913 0.17589 
69 1 18.2487 7.0414 0.057382 
82 1 17.5138 8.31039 0.0949052 
86 1 17.9379 9.62713 0.0833868 
96 1 14.0399 8.68886 12.3556 
98 1 19.2792 9.43691 0.171843 
102 1 20.0126 8.16713 0.083635 
113 1 12.5122 7.64821 10.9266 
1 1 17.8592 9.49212 16.2668 
2 1 18.6677 8.35525 16.9569 
8 1 18.8382 10.4883 15.5884 
9 1 18.7209 8.28845 18.4238 
20 1 14.062 8.69122 25.7051 
21 1 18.2432 7.03642 16.1841 
23 1 19.8296 10.5815 13.2609 
24 1 20.576 9.49913 14.1544 
25 1 17.4991 10.4221 13.5428 
27 1 17.1426 7.46971 15.4412 
37 1 19.9528 8.24564 16.1096 
39 1 16.4713 8.32133 13.3961 
40 1 16.6464 9.50144 14.2639 
63 1 17.8613 9.52253 21.8304 
64 1 18.6982 8.30794 21.108 
70 1 16.9281 9.03644 22.4409 
71 1 18.7314 8.27308 19.6395 
72 1 20.2325 11.8339 25.262 
81 1 19.9654 8.2126 21.9483 
83 1 16.495 8.26478 24.6583 
84 1 16.8582 7.00746 23.8468 
85 1 17.5087 10.4449 24.4999 
87 1 20.0454 9.47729 22.6699 
97 1 18.2369 7.01748 21.8622 
99 1 19.851 10.5521 24.8103 
100 1 18.4609 10.8578 23.854 
104 1 15.1548 8.43779 25.2327 
108 1 18.8336 10.3107 22.5588 
111 1 20.5976 9.49668 23.9374 
112 1 17.0876 7.46174 22.5663 
115 1 16.6738 9.49252 23.7936 
118 1 16.955 9.02417 15.6054 
121 1 16.9049 6.99122 14.1277 
122 1 20.0351 9.48288 15.4008 
125 1 18.4862 10.8402 14.1073 
129 2 18.7822 11.6057 15.7797 
130 2 18.2152 13.1113 14.7599 
131 3 19.1179 13.4094 14.622 
ITEM: TIMESTEP
60
ITEM: NUMBER OF ATOMS
131
ITEM: BOX BOUNDS xy xz yz pp pp pp
0.0000000000000000e+00 2.3654499999999999e+01 7.8845000000000001e+00
0.0000000000000000e+00 1.3658086643083999e+01 0.0000000000000000e+00
0.0000000000000000e+00 2.5747000000000000e+01 0.0000000000000000e+00
ITEM: ATOMS id type x y z 
18 1 10.3296 6.85736 2.65704 
28 1 5.09486 4.75337 12.8633 
31 1 9.28198 6.58876 0.388613 
62 1 8.84007 5.33153 12.3861 
91 1 9.29335 6.58863 11.9463 
92 1 10.6799 6.33324 10.9964 
106 1 10.3299 6.86223 9.69076 
127 1 10.6652 6.31731 1.35643 
4 1 4.38035 5.99465 13.3134 
5 1 3.16171 5.65996 14.2438 
43 1 4.59026 7.02789 15.4606 
52 1 8.83698 5.33313 25.6955 
66 1 4.4051 5.96222 24.8007 
67 1 5.093 7.07718 23.9173 
88 1 5.10793 4.70134 25.1587 
107 1 3.11898 5.76095 23.895 
116 1 4.57675 7.00096 22.6253 
117 1 5.11247 7.09119 14.1741 
11 1 11.3237 7.63787 3.37478 
12 1 10.5008 8.81007 4.09303 
14 1 9.05014 11.1259 0.441633 
15 1 10.2489 11.4759 1.35414 
16 1 8.22974 8.80526 0.615921 
19 1 10.4548 8.85431 5.55837 
29 1 10.9488 10.1031 3.31316 
32 1 8.51219 7.5923 1.26913 
35 1 12.0768 9.68412 2.57904 
45 1 9.22116 8.90759 3.25942 
47 1 12.7183 8.83928 0.518142 
49 1 11.4144 11.0758 0.676995 
51 1 8.83048 10.119 2.58755 
53 1 11.3304 7.61095 8.94773 
54 1 10.4929 8.81434 8.23951 
56 1 9.04474 11.1278 11.9207 
57 1 8.31376 10.0435 11.051 
58 1 11.456 10.9143 11.6879 
60 1 12.2654 8.13676 9.5454 
61 1 10.4499 8.85378 6.77442 
73 1 9.22473 8.91295 9.08709 
75 1 12.7099 8.92544 11.7733 
76 1 12.4082 10.1535 10.9407 
79 1 9.10716 7.64653 9.81191 
80 1 8.33991 12.3844 12.3044 
89 1 10.9548 10.1009 8.9937 
93 1 8.21631 8.80301 11.708 
95 1 10.0362 10.9879 9.70938 
105 1 10.3076 11.3765 11.0268 
109 1 8.512 7.58854 11.0664 
110 1 12.1417 9.70169 9.66571 
114 1 8.84466 10.1253 9.76774 
119 1 8.31487 10.0531 1.28334 
120 1 12.2479 8.15442 2.74279 
123 1 12.3311 10.1569 1.26084 
124 1 9.10404 7.64497 2.52865 
128 1 10.0017 11.0048 2.65367 
6 1 5.18594 8.32261 13.4962 
13 1 9.67914 10.1831 25.162 
17 1 9.09682 8.91572 25.1411 
30 1 9.87984 7.72465 24.9967 
34 1 11.2079 7.49863 25.1109 
36 1 8.3432 12.3339 25.7529 
46 1 11.6844 8.79425 25.1171 
50 1 11.126 10.1629 25.2901 
55 1 9.63071 10.1639 13.0054 
59 1 11.0231 10.1621 12.9115 
74 1 11.6417 8.86403 12.9697 
78 1 11.2082 7.55039 12.9601 
90 1 9.86941 7.73944 13.0778 
94 1 9.03353 8.89098 12.9643 
101 1 5.13186 8.30492 24.5772 
33 1 11.6327 6.73196 0.727448 
77 1 11.6396 6.76488 11.6254 
41 1 17.7804 6.03702 13.5613 
68 1 17.7912 6.28128 24.5575 
103 1 19.1507 6.14549 22.5726 
126 1 19.1973 6.13372 15.5341 
3 1 19.5029 6.94852 12.2902 
7 1 20.0938 8.21253 12.2703 
10 1 15.1224 8.40157 12.8182 
22 1 19.2957 9.39255 12.1112 
26 1 17.9607 9.59768 12.1698 
38 1 17.4993 8.31017 12.2292 
42 1 18.0695 6.94897 12.4103 
44 1 20.3904 11.8029 12.7709 
48 1 12.517 7.66194 1.4009 
65 1 19.6371 6.84064 0.194168 
69 1 18.2642 7.05767 0.0702312 
82 1 17.5276 8.31041 0.101908 
86 1 17.9534 9.62333 0.0883946 
96 1 14.0417 8.69632 12.3486 
98 1 19.2934 9.43646 0.20738 
102 1 20.0299 8.18561 0.0996492 
113 1 12.4839 7.70546 10.9165 
1 1 17.8465 9.48393 16.2667 
2 1 18.6616 8.37856 16.9495 
8 1 18.8587 10.4685 15.5849 
9 1 18.7242 8.30189 18.4223 
20 1 14.0647 8.70374 25.7026 
21 1 18.2457 7.04605 16.1768 
23 1 19.8845 10.5591 13.2291 
24 1 20.6418 9.53375 14.1433 
25 1 17.5465 10.3654 13.5492 
27 1 17.1256 7.43668 15.4403 
37 1 19.9526 8.27249 16.0904 
39 1 16.4593 8.28476 13.3952 
40 1 16.6701 9.4626 14.2626 
63 1 17.8668 9.51496 21.8223 
64 1 18.6966 8.32355 21.1054 
70 1 16.9271 8.99408 22.4192 
71 1 18.7377 8.28354 19.6364 
72 1 20.3421 11.804 25.2652 
81 1 19.9667 8.21972 21.9521 
83 1 16.4904 8.2238 24.6511 
84 1 16.8122 6.97859 23.8207 
85 1 17.5363 10.3938 24.4785 
87 1 20.0871 9.48227 22.6767 
97 1 18.2332 7.03438 21.8568 
99 1 19.8923 10.5375 24.8212 
100 1 18.5168 10.8024 23.8665 
104 1 15.1479 8.42612 25.2298 
108 1 18.8637 10.2712 22.5623 
111 1 20.6638 9.52441 23.9442 
112 1 17.0519 7.42866 22.5388 
115 1 16.7036 9.43908 23.78 
118 1 16.9575 8.98769 15.6043 
121 1 16.8635 6.95405 14.1294 
122 1 20.0698 9.50062 15.3785 
125 1 18.5333 10.8006 14.0981 
129 2 18.8379 11.5606 15.8966 
130 2 18.2025 13.1499 14.7644 
131 3 19.1196 13.4076 14.6304 
ITEM: TIMESTEP
70
ITEM: NUMBER OF ATOMS
131
ITEM: BOX BOUNDS xy xz yz pp pp pp
0.0000000000000000e+00 2.3654499999999999e+01 7.8845000000000001e+00
0.0000000000000000e+00 1.3658086643083999e+01 0.0000000000000000e+00
0.0000000000000000e+00 2.5747000000000000e+01 0.0000000000000000e+00
ITEM: ATOMS id type x y z 
18 1 10.324 6.8585 2.65407 
28 1 5.09618 4.76447 12.8621 
31 1 9.27916 6.58591 0.38811 
62 1 8.82354 5.33579 12.3892 
91 1 9.28594 6.58611 11.9476 
92 1 10.6763 6.33406 10.9982 
106 1 10.326 6.86082 9.69211 
127 1 10.6593 6.31779 1.35121 
4 1 4.39137 5.98164 13.3095 
5 1 3.16634 5.65723 14.2448 
43 1 4.5947 7.03365 15.4551 
52 1 8.82045 5.34009 25.6939 
66 1 4.41716 5.94702 24.8034 
67 1 5.09684 7.07745 23.9191 
88 1 5.1094 4.70924 25.156 
107 1 3.12417 5.76251 23.8964 
116 1 4.57995 7.00323 22.6294 
117 1 5.11958 7.09119 14.1729 