LAMMPS (3 Mar 2020)
# Alpha
clear
units		real
dimension 3
boundary        p p p
atom_style	charge
newton on
read_data       O_22.lmp
  orthogonal box = (0 0 0) to (11 11.002 11)
  2 by 2 by 2 MPI processor grid
  reading atoms ...
  49 atoms
  read_data CPU = 0.0408414 secs

timestep 0.25

# ---------- Define Interatomic Potential ---------------------
pair_style      reax/c NULL checkqeq no
pair_coeff      * * ffield.reax C O
fix             2 all qeq/reax 1 0.0 10.0 1.0e-6 reax/c

#------------ Equilibration of the system -------------------------
reset_timestep 0

dump 1 all custom 10 min.lammpstrj id type x y z

minimize 1.0e-8 1.0e-8 100000 100000
WARNING: Using 'neigh_modify every 1 delay 0 check yes' setting during minimization (../min.cpp:190)
WARNING: Total cutoff < 2*bond cutoff. May need to use an increased neighbor list skin. (../pair_reaxc.cpp:413)
Neighbor list info ...
  update every 1 steps, delay 0 steps, check yes
  max neighbors/atom: 2000, page size: 100000
  master list distance cutoff = 9.5
  ghost atom cutoff = 9.5
  binsize = 4.75, bins = 3 3 3
  2 neighbor lists, perpetual/occasional/extra = 2 0 0
  (1) pair reax/c, perpetual
      attributes: half, newton off, ghost
      pair build: half/bin/newtoff/ghost
      stencil: half/ghost/bin/3d/newtoff
      bin: standard
  (2) fix qeq/reax, perpetual, copy from (1)
      attributes: half, newton off, ghost
      pair build: copy
      stencil: none
      bin: none
Per MPI rank memory allocation (min/avg/max) = 18.75 | 18.81 | 18.91 Mbytes
Step Temp E_pair E_mol TotEng Press 
       0            0   -8650.7145            0   -8650.7145    36003.244 
     137            0   -8745.2026            0   -8745.2026    39903.287 
Loop time of 3.05244 on 8 procs for 137 steps with 49 atoms

99.4% CPU use with 8 MPI tasks x no OpenMP threads

Minimization stats:
  Stopping criterion = energy tolerance
  Energy initial, next-to-last, final = 
        -8650.71454198     -8745.20251093     -8745.20257223
  Force two-norm initial, final = 1380.05 43.6154
  Force max component initial, final = 910.39 11.3277
  Final line search alpha, max atom move = 8.94798e-07 1.0136e-05
  Iterations, force evaluations = 137 1211

MPI task timing breakdown:
Section |  min time  |  avg time  |  max time  |%varavg| %total
---------------------------------------------------------------
Pair    | 2.4448     | 2.4584     | 2.4761     |   0.8 | 80.54
Neigh   | 0          | 0          | 0          |   0.0 |  0.00
Comm    | 0.027608   | 0.045073   | 0.058453   |   5.5 |  1.48
Output  | 0.00025843 | 0.00033145 | 0.00051614 |   0.0 |  0.01
Modify  | 0.54196    | 0.54204    | 0.54217    |   0.0 | 17.76
Other   |            | 0.006544   |            |       |  0.21

Nlocal:    6.125 ave 7 max 6 min
Histogram: 7 0 0 0 0 0 0 0 0 1
Nghost:    598.125 ave 603 max 595 min
Histogram: 3 0 0 0 0 3 1 0 0 1
Neighs:    771.75 ave 874 max 755 min
Histogram: 7 0 0 0 0 0 0 0 0 1

Total # of neighbors = 6174
Ave neighs/atom = 126
Neighbor list builds = 0
Dangerous builds = 0

###
min_style cg
minimize 1.0e-8 1.0e-8 100000 100000
WARNING: Using 'neigh_modify every 1 delay 0 check yes' setting during minimization (../min.cpp:190)
WARNING: Total cutoff < 2*bond cutoff. May need to use an increased neighbor list skin. (../pair_reaxc.cpp:413)
Per MPI rank memory allocation (min/avg/max) = 18.75 | 18.81 | 18.91 Mbytes
Step Temp E_pair E_mol TotEng Press 
     137            0   -8745.2026            0   -8745.2026    39903.287 
     144            0   -8745.2037            0   -8745.2037    39900.626 
Loop time of 0.303442 on 8 procs for 7 steps with 49 atoms

99.5% CPU use with 8 MPI tasks x no OpenMP threads

Minimization stats:
  Stopping criterion = energy tolerance
  Energy initial, next-to-last, final = 
        -8745.20257223     -8745.20366509     -8745.20368482
  Force two-norm initial, final = 43.6154 40.7912
  Force max component initial, final = 11.3277 12.9163
  Final line search alpha, max atom move = 2.65279e-07 3.42642e-06
  Iterations, force evaluations = 7 125

MPI task timing breakdown:
Section |  min time  |  avg time  |  max time  |%varavg| %total
---------------------------------------------------------------
Pair    | 0.25241    | 0.25397    | 0.25551    |   0.2 | 83.70
Neigh   | 0          | 0          | 0          |   0.0 |  0.00
Comm    | 0.0024448  | 0.0039837  | 0.0055282  |   1.9 |  1.31
Output  | 2.0709e-05 | 5.9124e-05 | 0.00010451 |   0.0 |  0.02
Modify  | 0.044731   | 0.044743   | 0.044756   |   0.0 | 14.75
Other   |            | 0.0006884  |            |       |  0.23

Nlocal:    6.125 ave 7 max 6 min
Histogram: 7 0 0 0 0 0 0 0 0 1
Nghost:    598.125 ave 603 max 595 min
Histogram: 3 0 0 0 0 3 1 0 0 1
Neighs:    785 ave 888 max 767 min
Histogram: 7 0 0 0 0 0 0 0 0 1

Total # of neighbors = 6280
Ave neighs/atom = 128.163
Neighbor list builds = 0
Dangerous builds = 0

###
fix 1 all box/relax aniso 0.0
min_style cg
minimize 1.0e-8 1.0e-8 100000 100000
WARNING: Using 'neigh_modify every 1 delay 0 check yes' setting during minimization (../min.cpp:190)
WARNING: Total cutoff < 2*bond cutoff. May need to use an increased neighbor list skin. (../pair_reaxc.cpp:413)
Per MPI rank memory allocation (min/avg/max) = 18.75 | 18.81 | 18.91 Mbytes
Step Temp E_pair E_mol TotEng Press Volume 
     144            0   -8745.2037            0   -8745.2037    39900.626     1331.242 
     561            0   -8752.4226            0   -8752.4226    1402.9818    1348.2157 
Loop time of 1.55885 on 8 procs for 417 steps with 49 atoms

99.5% CPU use with 8 MPI tasks x no OpenMP threads

Minimization stats:
  Stopping criterion = linesearch alpha is zero
  Energy initial, next-to-last, final = 
        -8745.20368482     -8752.42255203     -8752.42255203
  Force two-norm initial, final = 1343.36 91.2411
  Force max component initial, final = 797.059 41.7449
  Final line search alpha, max atom move = 1.14226e-12 4.76837e-11
  Iterations, force evaluations = 417 672

MPI task timing breakdown:
Section |  min time  |  avg time  |  max time  |%varavg| %total
---------------------------------------------------------------
Pair    | 1.3314     | 1.3385     | 1.3453     |   0.5 | 85.87
Neigh   | 0          | 0          | 0          |   0.0 |  0.00
Comm    | 0.013344   | 0.019953   | 0.027038   |   3.9 |  1.28
Output  | 0.00069352 | 0.00083348 | 0.0011938  |   0.0 |  0.05
Modify  | 0.18811    | 0.18822    | 0.18833    |   0.0 | 12.07
Other   |            | 0.01134    |            |       |  0.73

Nlocal:    6.125 ave 7 max 6 min
Histogram: 7 0 0 0 0 0 0 0 0 1
Nghost:    598.125 ave 603 max 595 min
Histogram: 3 0 0 0 0 3 1 0 0 1
Neighs:    785 ave 888 max 767 min
Histogram: 7 0 0 0 0 0 0 0 0 1

Total # of neighbors = 6280
Ave neighs/atom = 128.163
Neighbor list builds = 0
Dangerous builds = 0

unfix 1
###
min_style cg
minimize 1.0e-8 1.0e-8 100000 100000
WARNING: Using 'neigh_modify every 1 delay 0 check yes' setting during minimization (../min.cpp:190)
WARNING: Total cutoff < 2*bond cutoff. May need to use an increased neighbor list skin. (../pair_reaxc.cpp:413)
Per MPI rank memory allocation (min/avg/max) = 18.75 | 18.81 | 18.91 Mbytes
Step Temp E_pair E_mol TotEng Press 
     561            0   -8752.4226            0   -8752.4226    1402.9818 
     765            0    -8769.888            0    -8769.888     16171.97 
Loop time of 4.52327 on 8 procs for 204 steps with 49 atoms

99.5% CPU use with 8 MPI tasks x no OpenMP threads

Minimization stats:
  Stopping criterion = linesearch alpha is zero
  Energy initial, next-to-last, final = 
        -8752.42255203     -8769.88800192     -8769.88800192
  Force two-norm initial, final = 71.0751 34.6959
  Force max component initial, final = 23.9404 10.7468
  Final line search alpha, max atom move = 7.29627e-12 7.84114e-11
  Iterations, force evaluations = 204 1841

MPI task timing breakdown:
Section |  min time  |  avg time  |  max time  |%varavg| %total
---------------------------------------------------------------
Pair    | 3.5876     | 3.6215     | 3.6718     |   1.3 | 80.06
Neigh   | 0          | 0          | 0          |   0.0 |  0.00
Comm    | 0.034232   | 0.084953   | 0.11925    |   8.6 |  1.88
Output  | 0.00040246 | 0.00049156 | 0.00075316 |   0.0 |  0.01
Modify  | 0.80591    | 0.8065     | 0.80687    |   0.0 | 17.83
Other   |            | 0.009849   |            |       |  0.22

Nlocal:    6.125 ave 7 max 6 min
Histogram: 7 0 0 0 0 0 0 0 0 1
Nghost:    578.75 ave 589 max 573 min
Histogram: 1 3 0 2 0 0 0 1 0 1
Neighs:    774 ave 882 max 754 min
Histogram: 7 0 0 0 0 0 0 0 0 1

Total # of neighbors = 6192
Ave neighs/atom = 126.367
Neighbor list builds = 0
Dangerous builds = 0

###
fix 1 all box/relax aniso 0.0
min_style cg
minimize 1.0e-8 1.0e-8 100000 100000
WARNING: Using 'neigh_modify every 1 delay 0 check yes' setting during minimization (../min.cpp:190)
WARNING: Total cutoff < 2*bond cutoff. May need to use an increased neighbor list skin. (../pair_reaxc.cpp:413)
Per MPI rank memory allocation (min/avg/max) = 18.75 | 18.81 | 18.91 Mbytes
Step Temp E_pair E_mol TotEng Press Volume 
     765            0    -8769.888            0    -8769.888     16171.97    1348.2157 
     882            0   -8771.0982            0   -8771.0982   -1490.1997    1354.8861 
Loop time of 0.526602 on 8 procs for 117 steps with 49 atoms

99.4% CPU use with 8 MPI tasks x no OpenMP threads

Minimization stats:
  Stopping criterion = linesearch alpha is zero
  Energy initial, next-to-last, final = 
        -8769.88800192     -8771.09822178     -8771.09822178
  Force two-norm initial, final = 554.74 56.9562
  Force max component initial, final = 341.115 32.2368
  Final line search alpha, max atom move = 2.89975e-12 9.34785e-11
  Iterations, force evaluations = 117 229

MPI task timing breakdown:
Section |  min time  |  avg time  |  max time  |%varavg| %total
---------------------------------------------------------------
Pair    | 0.44642    | 0.44953    | 0.45419    |   0.4 | 85.36
Neigh   | 0          | 0          | 0          |   0.0 |  0.00
Comm    | 0.004232   | 0.0088952  | 0.01202    |   3.1 |  1.69
Output  | 0.00020474 | 0.00025043 | 0.0003741  |   0.0 |  0.05
Modify  | 0.063749   | 0.063785   | 0.063818   |   0.0 | 12.11
Other   |            | 0.004142   |            |       |  0.79

Nlocal:    6.125 ave 7 max 6 min
Histogram: 7 0 0 0 0 0 0 0 0 1
Nghost:    575.625 ave 583 max 570 min
Histogram: 1 0 1 2 2 0 1 0 0 1
Neighs:    777.5 ave 882 max 756 min
Histogram: 7 0 0 0 0 0 0 0 0 1

Total # of neighbors = 6220
Ave neighs/atom = 126.939
Neighbor list builds = 0
Dangerous builds = 0

unfix 1
###
min_style cg
minimize 1.0e-8 1.0e-8 100000 100000
WARNING: Using 'neigh_modify every 1 delay 0 check yes' setting during minimization (../min.cpp:190)
WARNING: Total cutoff < 2*bond cutoff. May need to use an increased neighbor list skin. (../pair_reaxc.cpp:413)
Per MPI rank memory allocation (min/avg/max) = 18.75 | 18.81 | 18.91 Mbytes
Step Temp E_pair E_mol TotEng Press 
     882            0   -8771.0982            0   -8771.0982   -1490.1997 
     883            0   -8771.0982            0   -8771.0982   -1490.1997 
Loop time of 0.119074 on 8 procs for 1 steps with 49 atoms

99.5% CPU use with 8 MPI tasks x no OpenMP threads

Minimization stats:
  Stopping criterion = linesearch alpha is zero
  Energy initial, next-to-last, final = 
        -8771.09822178     -8771.09822178     -8771.09822178
  Force two-norm initial, final = 24.7276 24.7276
  Force max component initial, final = 6.04281 6.04281
  Final line search alpha, max atom move = 1.54121e-11 9.31323e-11
  Iterations, force evaluations = 1 51

MPI task timing breakdown:
Section |  min time  |  avg time  |  max time  |%varavg| %total
---------------------------------------------------------------
Pair    | 0.10058    | 0.10126    | 0.102      |   0.2 | 85.04
Neigh   | 0          | 0          | 0          |   0.0 |  0.00
Comm    | 0.00091267 | 0.0016584  | 0.0023508  |   1.2 |  1.39
Output  | 0          | 0          | 0          |   0.0 |  0.00
Modify  | 0.015846   | 0.015867   | 0.015882   |   0.0 | 13.33
Other   |            | 0.0002855  |            |       |  0.24

Nlocal:    6.125 ave 7 max 6 min
Histogram: 7 0 0 0 0 0 0 0 0 1
Nghost:    572.625 ave 579 max 568 min
Histogram: 2 1 0 0 1 3 0 0 0 1
Neighs:    775.75 ave 878 max 757 min
Histogram: 7 0 0 0 0 0 0 0 0 1

Total # of neighbors = 6206
Ave neighs/atom = 126.653
Neighbor list builds = 0
Dangerous builds = 0

undump 1
#############
#----------- Thermo ------------
reset_timestep 0
thermo  200

thermo_style    custom step temp etotal ke pe press
velocity all create 300 12345 mom yes rot yes
fix 1 all npt temp 300 300 25.0 iso 0.0 0.0 250.0

variable vpe equal pe
variable vtemp equal temp
variable vstep equal step

fix output all print 2500 "${vstep} ${vtemp} ${vpe}" file temp-tpdh-Pt.dat screen no

dump 1 all custom 2500 thermo-tpdh-Pt.lammpstrj id type x y z

run 1000000
WARNING: Total cutoff < 2*bond cutoff. May need to use an increased neighbor list skin. (../pair_reaxc.cpp:413)
Per MPI rank memory allocation (min/avg/max) = 17.63 | 17.68 | 17.78 Mbytes
Step Temp TotEng KinEng PotEng Press 
       0          300   -8728.1746    42.923665   -8771.0982    -42.00534 
     200    335.13102   -8710.1658    47.950172    -8758.116   -20520.656 
     400    340.80921   -8706.5656    48.762601   -8755.3282     1030.637 
     600    349.66405   -8717.3693    50.029541   -8767.3989   -3360.3363 
     800    300.06539   -8724.3771     42.93302   -8767.3101   -1994.2765 
    1000    295.89621   -8721.3209    42.336499   -8763.6574    13658.629 
    1200    297.50542    -8710.051    42.566743   -8752.6178    3544.9335 
    1400    265.93808   -8729.3657    38.050123   -8767.4158   -5008.4822 
    1600    335.12255   -8724.9986    47.948961   -8772.9475   -90.683687 
    1800    377.78517   -8705.5161    54.053079   -8759.5692    12488.717 
    2000    317.89372   -8715.8667    45.483878   -8761.3506   -30852.139 
    2200    316.09938   -8722.2479    45.227145   -8767.4751    22299.442 
    2400    314.46663   -8720.0577    44.993534   -8765.0513    34025.146 
    2600    259.90108   -8725.4322    37.186356   -8762.6185   -25904.983 
    2800    368.17467   -8712.0132     52.67802   -8764.6912   -36518.795 
    3000    280.50428   -8724.8278    40.134239    -8764.962   -2832.5004 
    3200    305.29923   -8724.4249    43.681873   -8768.1067   -36143.574 
    3400    337.29543   -8714.6077    48.259854   -8762.8676   -37742.667 
    3600    276.97473   -8721.4167    39.629234   -8761.0459    43299.177 
    3800    302.40054   -8721.7538    43.267132   -8765.0209   -26425.573 
    4000    339.62794   -8710.1484    48.593586   -8758.7419   -5495.4022 
    4200     281.0518   -8723.8361    40.212578   -8764.0487   -5225.8277 
    4400    316.29723   -8716.2771    45.255454   -8761.5326     10215.16 
    4600    265.80633    -8718.739    38.031273   -8756.7703     20106.79 
    4800    267.98277   -8726.3593    38.342676    -8764.702   -19280.006 
    5000    328.79911   -8708.5866    47.044209   -8755.6309   -39180.472 
    5200    343.13843   -8717.1452    49.095863    -8766.241   -832.00815 
    5400    313.25189   -8719.0545     44.81973   -8763.8743   -836.89568 
    5600    332.71393   -8714.3401    47.604337   -8761.9445   -3933.5905 
    5800    289.35823   -8724.6118    41.401052   -8766.0128   -9259.8864 
    6000    306.78883   -8723.2343    43.895002   -8767.1293    -25986.84 
    6200    311.91627    -8714.848    44.628631   -8759.4767   -13701.858 
    6400    238.34711    -8733.712    34.102439   -8767.8144    3677.1465 
    6600    292.92448   -8719.1472    41.911308   -8761.0585   -7951.9246 
    6800    341.77737   -8711.3517    48.901124   -8760.2528    29780.275 
    7000    263.27115   -8731.5347    37.668542   -8769.2032   -49120.202 
    7200     312.9155   -8718.0261      44.7716   -8762.7977   -43882.415 
    7400    346.27771   -8713.2461    49.545027   -8762.7911   -4776.0701 
    7600    324.39953   -8720.1062    46.414723   -8766.5209    -17610.46 
    7800    293.30147   -8726.3478    41.965247   -8768.3131    14485.952 
    8000    356.38655   -8714.0274    50.991389   -8765.0188    11596.147 
    8200    322.88921   -8717.5495    46.198628   -8763.7482    9439.9432 
    8400     317.7045   -8720.0192    45.456805    -8765.476    2265.3332 
    8600    384.26938   -8706.7312    54.980833    -8761.712   -9810.3593 
    8800    309.74356   -8719.1657    44.317763   -8763.4835    -69087.82 
    9000    296.29752    -8724.874    42.393918   -8767.2679   -2944.5138 
    9200    252.89863   -8722.1942    36.184454   -8758.3786    6894.0503 
    9400    276.30822   -8712.5071    39.533872    -8752.041    19535.253 
    9600    287.47817   -8728.2626    41.132055   -8769.3946   -22436.426 
    9800    327.12168   -8713.6968    46.804204    -8760.501    16541.839 
   10000    297.71415    -8712.779    42.596608   -8755.3756    16285.175 
   10200    266.31544   -8729.0563    38.104116   -8767.1604    9270.8097 
   10400    234.33009   -8723.0101    33.527687   -8756.5378    49439.227 
   10600    326.52065   -8717.6372    46.718209   -8764.3554   -11586.552 
   10800      241.344   -8733.8552     34.53123   -8768.3864     38684.41 
   11000    316.08229   -8719.6414    45.224701   -8764.8661    42223.351 
   11200    292.73045   -8720.3463    41.883545   -8762.2298   -6857.0404 
   11400    401.41005   -8710.3186    57.433301   -8767.7519    14422.995 
   11600    293.46704   -8726.4591    41.988936    -8768.448   -50125.749 
   11800    285.53959   -8721.1521    40.854685   -8762.0068   -31325.925 
   12000    319.60092   -8717.8523    45.728142   -8763.5804    50272.926 
   12200    259.10534   -8720.6414    37.072502   -8757.7139    -28511.86 
   12400    265.49128   -8732.8054    37.986195   -8770.7915    6494.5602 
   12600     348.4477   -8716.1833    49.855507   -8766.0388   -36743.364 
   12800    326.89623   -8714.3452    46.771947   -8761.1171   -7179.1056 
   13000    279.99306   -8730.8082    40.061094   -8770.8693    1364.5123 
   13200    293.38059   -8725.7626    41.976566   -8767.7391   -28025.034 
   13400    310.31604   -8713.7477    44.399672   -8758.1474    28244.549 
   13600    313.50064   -8723.8265    44.855322   -8768.6818    3102.1557 
   13800     302.7951   -8718.4231    43.323585   -8761.7467    2532.2496 
   14000     342.0557   -8709.3198    48.940947   -8758.2608     14761.84 
   14200    273.20541   -8727.5911    39.089925    -8766.681   -1399.4827 
   14400    297.37081   -8721.7919    42.547484   -8764.3394   -4739.1379 
   14600    322.17913   -8707.8861     46.09703   -8753.9831    11204.983 
   14800    325.49173   -8710.0706    46.570992   -8756.6416    3095.4494 
   15000     281.1223   -8723.6857    40.222665   -8763.9084    11933.499 
   15200    257.68121   -8727.7547     36.86874   -8764.6235    68498.714 
   15400    351.01248   -8711.8588    50.222473   -8762.0813    51313.439 
   15600    281.75197   -8726.8382    40.312757    -8767.151   -49709.679 
   15800    267.53269   -8723.5171    38.278279   -8761.7954    67279.643 
   16000    321.04569   -8711.3478    45.934859   -8757.2827   -35453.645 
   16200    322.78535   -8713.7511    46.183767   -8759.9349   -20874.658 
   16400    292.28474   -8721.6723    41.819774   -8763.4921    69901.267 
   16600    269.37208   -8728.4439    38.541456   -8766.9854    16585.818 
   16800    327.11763   -8720.9358    46.803625   -8767.7394   -11630.087 
   17000    286.30321   -8714.4232    40.963944   -8755.3871    -8850.841 
   17200    251.40063    -8731.197    35.970121   -8767.1672    17686.957 
   17400    287.01544    -8726.296    41.065849   -8767.3618   -13778.273 
   17600    247.99851   -8720.3869     35.48335   -8755.8702    20606.072 
   17800     245.9499    -8723.424    35.190236   -8758.6142    49836.367 
   18000    312.77818   -8715.5671    44.751952   -8760.3191     16565.29 
   18200    335.04702   -8710.1781    47.938153   -8758.1162   -2047.6488 
   18400    303.63476   -8730.3399    43.443722   -8773.7837   -8740.2787 
   18600    271.06506   -8718.7896    38.783686   -8757.5733    18698.056 
   18800    349.22251   -8714.3344    49.966367   -8764.3008   -741.01128 
   19000    279.33601   -8724.4168    39.967084   -8764.3839   -20307.284 
   19200    229.65758   -8740.8617     32.85915   -8773.7209     18788.19 
   19400    279.57236   -8725.3794    40.000901   -8765.3803   -38831.112 
   19600      341.648   -8713.1034    48.882615    -8761.986     15250.47 
   19800    268.34233   -8724.3293    38.394121   -8762.7235   -27655.987 
   20000    248.45255   -8724.1636    35.548314   -8759.7119   -12329.697 
   20200    307.96942   -8718.3373     44.06392   -8762.4012    5360.7514 
   20400    260.05988   -8717.3449    37.209078    -8754.554    -8782.819 
   20600    254.62679   -8730.5552    36.431716   -8766.9869   -9074.1533 
   20800    275.29146   -8721.8471    39.388395   -8761.2355   -4261.9194 
   21000    276.79643   -8720.0506    39.603724   -8759.6543    18349.501 
   21200     331.8762   -8721.1442    47.484475   -8768.6287   -45552.723 
   21400    329.80052   -8713.0897     47.18749   -8760.2772    9032.8786 
   21600    302.33859   -8723.7791    43.258267   -8767.0373   -12091.106 
   21800    236.40947   -8733.8622    33.825202   -8767.6874    36523.717 
   22000    320.32591   -8713.7861    45.831873    -8759.618    26069.565 
   22200    299.21576   -8722.0652    42.811456   -8764.8766    24465.965 
   22400    248.05312    -8725.069    35.491163   -8760.5601   -22795.916 
   22600    317.05085   -8717.3543    45.363282   -8762.7175   -4872.5869 
   22800     277.0532   -8724.1117    39.640463   -8763.7521   -12189.987 
   23000    270.46396   -8729.4359    38.697681   -8768.1336   -18257.477 
   23200    338.06146   -8713.7119    48.369456   -8762.0813   -603.99421 
   23400    354.36355   -8714.6443    50.701941   -8765.3463   -9028.3063 
   23600    233.44529   -8728.4606    33.401092   -8761.8617    6610.1155 
   23800    299.18208   -8716.7787    42.806638   -8759.5854    -1252.707 
   24000    291.10467   -8723.0093     41.65093   -8764.6602    20384.063 
   24200    253.11641   -8728.7201    36.215613   -8764.9357     18784.82 
   24400    334.10336   -8716.2266    47.803136   -8764.0298   -21574.158 
   24600    352.42478   -8707.2557    50.424544   -8757.6802    3257.2424 
   24800    307.20435   -8711.9918    43.954455   -8755.9462     52682.95 
   25000    270.93679   -8722.8121    38.765334   -8761.5774    10352.524 
   25200    283.29636   -8729.4223    40.533727    -8769.956    25627.391 
   25400    272.68161   -8727.5182    39.014981   -8766.5332     32142.94 
   25600    248.89813    -8718.868    35.612066   -8754.4801    17068.339 
   25800     284.9587   -8720.5994    40.771573    -8761.371   -24156.737 
   26000    331.43081   -8717.1128    47.420749   -8764.5336    19894.973 
   26200    273.81944   -8726.3489     39.17778   -8765.5267    17364.921 
   26400    268.37949   -8730.0709    38.399437   -8768.4703    10243.013 
   26600    362.03999   -8710.5506    51.800278   -8762.3509   -10431.074 
   26800    338.29734   -8717.8493    48.403205   -8766.2525    14616.853 
   27000    258.87435   -8726.0718    37.039452   -8763.1113   -21022.711 
   27200    350.19372   -8714.9656    50.105327    -8765.071    9794.5023 
   27400    250.55824   -8731.5199    35.849593   -8767.3695     46024.21 
   27600    271.30027    -8728.816    38.817339   -8767.6333    27969.801 
   27800    320.48756   -8714.7495    45.855002   -8760.6045    19473.934 
   28000    271.36918   -8722.7004    38.827199   -8761.5276   -11012.353 
   28200    229.54028   -8743.7508    32.842366   -8776.5932   -3353.4508 
   28400    253.62652   -8732.1727    36.288599   -8768.4613    12254.645 
   28600    304.17148   -8715.8796    43.520516   -8759.4002    14556.088 
   28800    306.75062   -8721.6727    43.889536   -8765.5623    18259.308 
   29000    323.23477   -8722.3966     46.24807   -8768.6447    13286.899 
   29200     319.6429   -8707.7107    45.734149   -8753.4448    18485.547 
   29400    243.04949   -8716.4305    34.775249   -8751.2058     19551.95 
   29600    254.96106   -8724.4972    36.479544   -8760.9768    -4511.549 
   29800    390.88378     -8713.71    55.927214   -8769.6372   -21031.882 
   30000    311.64754   -8711.2486    44.590182   -8755.8388   -46675.362 
   30200    265.58253   -8724.8145    37.999251   -8762.8137   -37427.421 
   30400    305.99097   -8718.9247    43.780846   -8762.7055   -40090.077 
   30600    398.40131   -8708.5871    57.002814   -8765.5899   -14672.055 
   30800    326.57166   -8724.6185    46.725508    -8771.344   -13853.371 
   31000    303.63963   -8723.5257    43.444419   -8766.9702    10417.237 
   31200    351.86974   -8703.9914    50.345129   -8754.3366    4303.4945 
   31400    326.70303   -8712.4371    46.744304   -8759.1814   -8361.9391 
   31600    272.25459   -8721.1155    38.953882   -8760.0694   -30065.884 
   31800    266.19709   -8719.7366    38.087182   -8757.8238    22794.028 
   32000     338.4392   -8718.9099    48.423502   -8767.3334    6263.3646 
   32200    286.35581   -8729.2798     40.97147   -8770.2513   -3906.3365 
   32400    249.88019   -8730.4068    35.752579   -8766.1594    25044.472 
   32600    330.37885   -8714.5945    47.270237   -8761.8648    4689.6365 
   32800    245.88776   -8728.7178    35.181346   -8763.8992   -8073.8055 
   33000    309.60945   -8723.3641    44.298573   -8767.6627    4209.3611 
   33200    362.01833   -8720.5813    51.797178   -8772.3785   -30649.075 
   33400    224.02694    -8735.136    32.053524   -8767.1895     5864.502 
   33600    318.01946   -8723.1987    45.501869   -8768.7005    3891.8294 
   33800    338.05194   -8713.3314    48.368094   -8761.6995    687.64874 
   34000    241.93711    -8725.178    34.616092   -8759.7941    47745.494 
   34200    318.34404   -8725.4484    45.548309   -8770.9967    12240.925 
   34400     330.1842   -8710.9261    47.242386   -8758.1685   -24465.231 
   34600    318.09214   -8700.2311    45.512268   -8745.7434    8348.8265 
   34800    264.16241   -8721.6347    37.796062   -8759.4308    3643.2661 
   35000    291.81148   -8722.1268     41.75206   -8763.8789    10240.388 
   35200    349.74702   -8708.9672    50.041413   -8759.0086     24159.19 
   35400    244.58489   -8727.4414    34.994933   -8762.4364    12241.641 
   35600    321.17672   -8717.8552    45.953607   -8763.8088    11921.716 
   35800    276.95389   -8714.5416    39.626254   -8754.1679   -16726.217 
   36000     311.1027   -8717.4731    44.512227   -8761.9853    8382.8746 
   36200    287.57615   -8720.2235    41.146074   -8761.3696   -35768.706 
   36400    321.43125   -8720.3099    45.990025   -8766.2999    -16990.57 
   36600    281.39924   -8725.5456    40.262288   -8765.8079   -7234.9103 
   36800    371.59409   -8719.9346    53.167267   -8773.1019   -8949.5024 
   37000    305.17523   -8706.6134     43.66413   -8750.2775    30436.954 
   37200    347.55944   -8707.4452    49.728416   -8757.1737   -20495.835 
   37400    372.87579   -8718.2928    53.350651   -8771.6435    1262.8941 
   37600    284.83775    -8731.779    40.754267   -8772.5333    12052.009 
   37800    328.14357   -8712.8379    46.950415   -8759.7883    20632.043 
   38000    325.29025   -8717.1363    46.542165   -8763.6785    26000.414 
   38200    268.43961    -8732.169     38.40804    -8770.577   -21613.065 
   38400    231.26023   -8728.7575    33.088455    -8761.846   -40525.419 
   38600    296.90588   -8722.0337    42.480961   -8764.5146   -3540.6396 
   38800    350.73602   -8712.1947    50.182918   -8762.3776    40375.422 
   39000    272.12231   -8726.0594    38.934956   -8764.9944    13514.734 
   39200    330.42027   -8722.5189    47.276162    -8769.795   -3139.0365 
   39400    283.55624   -8717.7677     40.57091   -8758.3386    -444.1014 
   39600    380.10882   -8703.3218    54.385544   -8757.7074    49438.187 
   39800     364.8801   -8718.7992    52.206637   -8771.0058    2435.9401 
   40000    320.15366   -8725.7097    45.807227   -8771.5169    8075.2127 
   40200    323.81006   -8706.7483    46.330382   -8753.0787    3002.8223 
   40400    298.15061   -8715.9733    42.659056   -8758.6323   -49753.716 
   40600    318.45468   -8722.3215    45.564139   -8767.8857   -8629.9446 
   40800    266.15773    -8727.842    38.081551   -8765.9236   -881.23785 
   41000    281.60855   -8708.2175    40.292236   -8748.5097    47282.891 
   41200    286.81408   -8721.7694    41.037038   -8762.8064     7884.267 
   41400    236.20656     -8723.13    33.796171   -8756.9262    13492.929 
   41600    307.37674   -8713.6328    43.979121   -8757.6119    22150.297 
   41800    309.68267   -8721.1711    44.309051   -8765.4801     5029.639 
   42000    234.05621   -8727.9715    33.488501     -8761.46   -9576.6396 
   42200     341.5899   -8705.8402    48.874302   -8754.7145   -21574.024 
   42400    318.32973   -8716.9839    45.546263   -8762.5302    14662.682 
   42600    267.38525   -8721.5571    38.257183   -8759.8143    29086.607 
   42800      325.453   -8711.7717    46.565452   -8758.3372   -7435.9175 
   43000    410.03074   -8716.0184     58.66674   -8774.6851   -30344.562 
   43200    290.48303   -8727.9298    41.561987   -8769.4918    11468.181 
   43400      308.738   -8711.3886    44.173888   -8755.5625    30374.078 
   43600    296.55813   -8713.9825    42.431206   -8756.4137   -45226.807 
   43800    368.21879   -8713.9916    52.684333    -8766.676   -12263.121 
   44000    276.83862   -8733.0506    39.609761   -8772.6604    16425.693 
   44200    303.49653   -8719.3982    43.423944   -8762.8222    1129.8889 
   44400    308.06755   -8723.8424    44.077961   -8767.9204   -8313.7067 
   44600    240.09427   -8735.8943    34.352419   -8770.2467   -11431.913 
   44800    311.86203   -8722.4082     44.62087    -8767.029   -12757.433 
   45000     297.0297   -8713.2882    42.498678   -8755.7868    10326.085 
   45200    294.72783   -8729.4809    42.169328   -8771.6503    2815.4283 
   45400    258.63783   -8725.5817    37.005612   -8762.5873    893.17727 
   45600    278.18473   -8723.9035     39.80236   -8763.7059   -22153.216 
   45800    337.56247   -8711.7417    48.298061   -8760.0398   -6497.6458 
   46000    311.77158   -8705.7742    44.607929   -8750.3821   -26578.194 
   46200    307.65406   -8720.1133      44.0188   -8764.1321    696.11454 
   46400    267.52376   -8725.9715       38.277   -8764.2485    13703.447 
   46600    303.30328    -8710.539    43.396294   -8753.9353    8421.5774 
   46800    353.05652   -8717.7717    50.514933   -8768.2866   -813.91139 
   47000    252.86455   -8726.3986    36.179577   -8762.5782   -5594.4373 
   47200    350.52147    -8715.473     50.15222   -8765.6252     17526.74 
   47400    241.74242   -8731.6815    34.588235   -8766.2697    17865.563 
   47600    296.12206   -8722.9498    42.368813   -8765.3186     23547.16 
   47800    324.02158    -8714.713    46.360646   -8761.0737   -17527.289 
   48000    328.28317    -8718.966    46.970389   -8765.9364    23079.755 
   48200    250.75564   -8736.6087    35.877836   -8772.4865   -2159.5529 
   48400    323.85994   -8723.0562    46.337519   -8769.3937   -21981.584 
   48600     298.6471   -8721.0522    42.730093   -8763.7823     862.1444 
   48800    321.11252    -8721.557    45.944421   -8767.5014    34573.596 
   49000    273.47172   -8719.7144    39.128029   -8758.8425   -14843.227 
   49200    321.01435   -8708.4949    45.930374   -8754.4252    12974.653 
   49400    292.25736   -8720.1772    41.815856    -8761.993    9375.5855 
   49600     277.9209   -8723.0248    39.764612   -8762.7894    6328.7517 
   49800    281.73505   -8729.4227    40.310335    -8769.733   -811.22938 
   50000    291.07094   -8716.6946    41.646104   -8758.3407   -51840.191 
   50200    254.03681   -8715.7843    36.347303   -8752.1316    25816.037 
   50400    259.36557   -8730.5507    37.109736   -8767.6604   -22334.555 
   50600    327.36949   -8721.0213    46.839661    -8767.861   -35891.222 
   50800    279.59337   -8717.2069    40.003908   -8757.2108   -5893.7062 
   51000    294.60534   -8733.8121    42.151803   -8775.9639   -17075.704 
   51200    325.14031   -8722.1159    46.520713   -8768.6366   -26516.964 
   51400    330.76753   -8719.0571    47.325849    -8766.383    19077.121 
   51600    315.14871   -8711.9531    45.091125   -8757.0442    34125.419 
   51800    317.67076   -8713.4911    45.451977    -8758.943   -16632.851 
   52000    238.40646   -8726.6713     34.11093   -8760.7822   -6864.4625 
   52200    256.25226   -8717.8131    36.664288   -8754.4774    21921.458 
   52400    390.76981   -8689.7107    55.910908   -8745.6216    49940.203 
   52600    358.97166    -8710.706    51.361265   -8762.0672    3736.0265 
   52800    296.52544   -8725.5674    42.426529   -8767.9939   -16535.519 
   53000    304.87624   -8725.8658    43.621352   -8769.4872   -24815.519 
   53200    318.55792   -8708.5055    45.578911   -8754.0844   -14864.867 
   53400    316.37959   -8722.1468    45.267239    -8767.414     7479.805 
   53600    264.54145   -8721.9391    37.850295   -8759.7894     16139.41 
   53800    287.40088   -8719.3198    41.120997   -8760.4408   -5899.9338 
   54000    254.05627   -8729.5856    36.350087   -8765.9357   -13438.236 
   54200    292.39796   -8721.7364    41.835974   -8763.5724    17170.047 
   54400    329.44536   -8712.0018    47.136673   -8759.1385   -18102.194 
   54600    304.37895   -8719.1206    43.550199   -8762.6708    -17176.81 
   54800    315.38964   -8716.7698    45.125597   -8761.8954    2274.0355 
   55000    287.79436   -8720.6635    41.177295   -8761.8408   -12970.216 
   55200    198.76363   -8728.7192    28.438878    -8757.158   -35129.302 
   55400      353.282   -8711.8919    50.547193   -8762.4391   -2434.3636 
   55600    284.89734   -8717.8675    40.762792   -8758.6303     11503.23 
   55800    263.69274   -8729.7132    37.728863   -8767.4421     28697.12 
   56000    357.40378   -8717.4165    51.136933   -8768.5534   -675.75905 
   56200    290.93491   -8713.4407    41.626641   -8755.0673    2223.9316 
   56400    256.32585   -8729.7932    36.674816    -8766.468   -29032.303 
   56600    310.45061    -8721.589    44.418926    -8766.008    2477.1472 
   56800    297.79732   -8713.5158    42.608508   -8756.1243    8578.4037 
   57000     266.3433   -8724.8938    38.108102   -8763.0019    17716.164 
   57200    358.59184   -8716.0266    51.306919   -8767.3335   -2206.0006 
   57400    299.06771   -8711.8912    42.790273   -8754.6815    10398.236 
   57600    280.93195   -8726.0443    40.195429   -8766.2397    37236.993 
   57800    318.60503   -8715.2652    45.585651   -8760.8509   -20197.727 
   58000    345.45553   -8715.4393    49.427392   -8764.8667    99.119963 
   58200    245.38557   -8730.3319    35.109493   -8765.4414   -10258.933 
   58400    322.28762   -8716.1127    46.112552   -8762.2252   -28774.866 
   58600    354.11866   -8713.6869    50.666902   -8764.3538    4646.1447 
   58800    321.91066   -8721.9477    46.058617   -8768.0063   -20591.045 
   59000    285.05995   -8718.8675     40.78606   -8759.6535   -5605.9937 
   59200     314.2026   -8704.4362    44.955757    -8749.392   -4068.5034 
   59400    307.23599   -8714.1632    43.958983   -8758.1222    22545.824 
   59600    240.67188   -8725.7959    34.435063    -8760.231    16973.086 
   59800     294.5351   -8713.6811    42.141753   -8755.8228   -4622.4309 
   60000     304.9574   -8707.1379    43.632964   -8750.7709   -9869.3052 
   60200    257.31705    -8723.897    36.816636   -8760.7136    22294.643 
   60400    305.20046   -8718.2499    43.667741   -8761.9177   -3455.3401 
   60600    355.29337   -8713.8069    50.834979   -8764.6419   -15176.502 
   60800    284.42175   -8726.4414    40.694746   -8767.1361   -13349.363 
   61000    307.48455   -8716.5336    43.994545   -8760.5282    26615.949 
   61200    350.37645   -8712.2095    50.131471    -8762.341    4105.0838 
   61400    287.05638   -8725.5215    41.071706   -8766.5932   -15236.292 
   61600      319.402    -8722.524    45.699681   -8768.2237   -24057.091 
   61800    273.33706   -8720.7376    39.108761   -8759.8463   -2592.2058 
   62000    268.06214   -8715.1046    38.354031   -8753.4587    19935.774 
   62200    337.87666   -8716.2439    48.343015    -8764.587   -10398.463 
   62400    279.27407   -8728.8772    39.958221   -8768.8355    -35057.69 
   62600    313.08599   -8711.6916    44.795994   -8756.4876    5117.5747 
   62800    266.12664   -8715.6581    38.077102   -8753.7352    51472.873 
   63000    320.91309   -8726.2888    45.915886   -8772.2047   -10231.328 
   63200    391.09457   -8709.4692    55.957374   -8765.4266   -4924.2059 
   63400    308.40622   -8708.0032    44.126417   -8752.1296    17220.966 
   63600    317.15075   -8723.9117    45.377575   -8769.2892    7465.3425 
   63800    258.67692   -8721.7602    37.011204   -8758.7714    7790.3028 
   64000    326.04692   -8707.1193    46.650429   -8753.7697   -16114.164 
   64200    310.67118   -8719.6303    44.450485   -8764.0808   -2705.2383 
   64400    312.11293   -8722.5709    44.656769   -8767.2277    48674.324 
   64600    244.89632   -8725.3606    35.039492   -8760.4001    6266.0334 
   64800    338.21457   -8712.2932    48.391363   -8760.6845    57141.925 
   65000    326.09475   -8727.0307    46.657272    -8773.688   -7527.2305 
   65200    287.45285   -8724.3201    41.128433   -8765.4485    5808.3304 
   65400    309.79262   -8715.0262    44.324782   -8759.3509   -14545.253 
   65600    284.75075   -8719.2739    40.741819   -8760.0157   -4504.4986 
   65800    276.97515   -8735.3553    39.629296   -8774.9846    42222.865 
   66000    315.23793   -8723.0517    45.103891   -8768.1556    17373.118 
   66200    353.54062   -8717.0945    50.584197   -8767.6787   -6483.7502 
   66400    377.03901   -8703.8123    53.946321   -8757.7586   -18742.268 
   66600    282.24698   -8722.5728    40.383582   -8762.9564    6231.9812 
   66800    283.74167   -8722.3468    40.597441   -8762.9442    13665.735 
   67000     353.7802   -8705.1057    50.618476   -8755.7242   -4202.8294 
   67200    365.09392   -8714.9406     52.23723   -8767.1779    13868.684 
   67400    271.05359    -8726.629    38.782044    -8765.411   -6824.4615 
   67600    370.61803   -8709.1246    53.027614   -8762.1522   -23469.022 
   67800    367.61546   -8715.0282    52.598008   -8767.6262   -12219.635 
   68000    309.63045   -8723.4184    44.301579     -8767.72     23070.91 
   68200    308.51559   -8717.5383    44.142066   -8761.6803    30779.797 
   68400    314.59205   -8719.6746     45.01148   -8764.6861    22303.826 
   68600    276.22716   -8727.1857    39.522274    -8766.708   -15000.959 
   68800    353.92829    -8708.964    50.639664   -8759.6037   -16545.094 
   69000    270.83293    -8719.258    38.750473   -8758.0085   -2887.1138 
   69200    225.51537   -8738.9166    32.266487   -8771.1831    -11814.27 
   69400    291.25496    -8729.054    41.672434   -8770.7264    38513.917 
   69600    350.54374   -8717.6272    50.155406   -8767.7826    16209.033 
   69800    287.26011   -8714.9431    41.100855   -8756.0439   -21672.286 
   70000    296.89076    -8713.365    42.478799   -8755.8438   -44791.658 
   70200    268.50169   -8726.6301    38.416922    -8765.047    13685.635 
   70400    310.99655   -8720.0429    44.497038     -8764.54     7247.116 
   70600    363.47658   -8707.2579    52.005823   -8759.2638    12163.677 
   70800    305.14325   -8723.4205    43.659555     -8767.08   -16296.306 
   71000    313.91569   -8725.6251    44.914706   -8770.5398   -3843.6906 
   71200    323.44704   -8714.8198    46.278441   -8761.0982     2826.955 
   71400    294.43683   -8718.0039    42.127692   -8760.1316    4214.1427 
   71600    296.39501   -8727.8674    42.407866   -8770.2752    2654.0462 
   71800     295.8045   -8718.9501    42.323377   -8761.2734    8725.8754 
   72000     313.8394   -8715.9307    44.903791   -8760.8345   -7710.3871 
   72200    251.15418   -8733.7785     35.93486   -8769.7134    25021.934 
   72400    342.58774   -8716.1055    49.017071   -8765.1226    19049.309 
   72600    285.68059    -8722.074     40.87486   -8762.9489   -28147.905 
   72800    248.40785   -8735.7525    35.541918   -8771.2944    27962.061 
   73000    253.22134   -8727.2796    36.230627   -8763.5102    13782.998 
   73200    323.89657   -8717.1255    46.342759   -8763.4683    -12293.65 
   73400    294.66524   -8721.4539    42.160373   -8763.6143   -35708.717 
   73600    296.36126   -8729.7268    42.403038   -8772.1298   -31976.247 
   73800    271.82271    -8717.036     38.89209   -8755.9281    1116.6595 
   74000    305.33044   -8714.5015    43.686338   -8758.1878   -16374.793 
   74200    244.68835   -8730.9567    35.009736   -8765.9664   -5050.7229 
   74400    229.77047   -8741.7155    32.875302   -8774.5908    25197.098 
   74600     282.5693    -8722.415      40.4297   -8762.8447   -36902.773 
   74800    285.90744   -8714.0632    40.907317   -8754.9706    3838.0466 
   75000    259.91733     -8729.96    37.188681   -8767.1487    7444.5381 
   75200    282.98967   -8721.2451    40.489845    -8761.735   -32175.651 
   75400     359.9029   -8717.8532    51.494504   -8769.3477    13200.005 
   75600    271.29386    -8719.493    38.816422   -8758.3095   -7967.7078 
   75800    300.67125   -8713.4714    43.019706   -8756.4912   -28403.487 
   76000    255.96909   -8728.8426    36.623771   -8765.4663   -14974.606 
   76200    197.19816   -8735.2034    28.214893   -8763.4183   -6269.6468 
   76400     289.3001   -8716.6977    41.392735   -8758.0905    3789.1323 
   76600    285.57981   -8718.7603    40.860439   -8759.6207    5301.9522 
   76800    252.79386   -8729.3772    36.169463   -8765.5467     798.6609 
   77000    301.92547   -8711.7449    43.199159   -8754.9441    605.56083 
   77200    305.06721   -8721.4216    43.648675   -8765.0703    19088.232 
   77400    308.19164   -8728.1542    44.095715   -8772.2499   -12713.368 
   77600    328.50628    -8709.749    47.002311   -8756.7513    -8902.107 
   77800    322.64889   -8722.2127    46.164243   -8768.3769    20398.639 
   78000    257.57373   -8730.2709    36.853361   -8767.1243    31252.441 
   78200    319.27818   -8719.1817    45.681965   -8764.8637   -6833.9101 
   78400    305.18378   -8722.1593    43.665355   -8765.8247   -40046.321 
   78600    290.28259   -8714.9173    41.533308   -8756.4506   -20311.243 
   78800    307.86387   -8711.3885    44.048818   -8755.4373    1204.5939 
   79000    283.58455   -8726.0238     40.57496   -8766.5988   -20608.357 
   79200    357.41604   -8715.6423    51.138687    -8766.781   -30162.036 
   79400    326.10229   -8710.3811    46.658351   -8757.0395    16604.419 
   79600    285.86515   -8718.6138    40.901266    -8759.515    -12589.15 
   79800    338.24794   -8719.5949    48.396138    -8767.991   -18586.763 
   80000    300.69435   -8729.1035    43.023011   -8772.1265   -17069.124 
   80200    330.61383   -8714.3118    47.303857   -8761.6156    14990.822 
   80400    352.98924    -8716.305    50.505307   -8766.8103   -1757.7313 
   80600    295.13531   -8729.9991    42.227631   -8772.2268    17482.399 
   80800    314.17307   -8715.4963    44.951531   -8760.4478   -5166.7353 
   81000     333.6539   -8712.7826    47.738827   -8760.5214    22645.359 
   81200     281.9218   -8727.1377    40.337057   -8767.4748    -14362.77 
   81400    298.95073   -8711.0799    42.773536   -8753.8535    23949.594 
   81600     274.8028   -8714.7706    39.318478    -8754.089    22793.592 
   81800    296.11034    -8723.295    42.367136   -8765.6621    7280.3763 
   82000    237.97839   -8735.7131    34.049682   -8769.7628    12350.111 
   82200    274.84484   -8724.8196    39.324492   -8764.1441   -22819.149 
   82400    264.06181   -8717.6637    37.781669   -8755.4454   -2473.3985 
   82600    318.17311    -8714.533    45.523853   -8760.0569    23381.186 
   82800    272.21043   -8726.3305    38.947564   -8765.2781    5783.0766 
   83000    310.66826   -8722.1194    44.450068   -8766.5695    12260.156 
   83200    335.72342   -8711.6073    48.034931   -8759.6422    71215.483 
   83400    307.59135   -8720.9384    44.009827   -8764.9483    10999.517 
   83600    293.38834   -8722.3394    41.977676   -8764.3171   -21737.114 
   83800     329.3971   -8711.4583    47.129768   -8758.5881   -2951.6146 
   84000    334.48543   -8705.2924    47.857801   -8753.1502    5542.9973 
   84200    265.36981   -8719.7976    37.968816   -8757.7664    22299.104 
   84400    307.45699   -8727.2526    43.990602   -8771.2432    14323.295 
   84600    350.37379   -8708.3773     50.13109   -8758.5084   -2824.7687 
   84800    318.52758   -8720.9979     45.57457   -8766.5725   -8327.8154 
   85000     257.6307   -8724.0281    36.861513   -8760.8896   -11486.722 
   85200     315.4638   -8716.4148    45.136208    -8761.551   -15211.875 
   85400     247.7235   -8721.2668    35.444001   -8756.7108   -2964.6644 
   85600    304.45095   -8722.1412    43.560502   -8765.7017    46181.584 
   85800     296.1058   -8715.3728    42.366486   -8757.7393    1137.5896 
   86000    329.58636   -8712.1086    47.156848   -8759.2654   -23924.143 
   86200     276.9418   -8728.4594    39.624523   -8768.0839    43593.488 
   86400    319.79942   -8716.4661    45.756543   -8762.2227   -16058.635 
   86600    366.74739   -8690.8486    52.473807   -8743.3224    -15543.33 
   86800    336.97632    -8708.241    48.214195   -8756.4552   -17653.902 
   87000    276.64954   -8723.6872    39.582707   -8763.2699    52726.384 
   87200    263.11899   -8723.9323    37.646771   -8761.5791    8532.6582 
   87400    316.42469   -8709.2478    45.273691   -8754.5215     12072.87 
   87600    327.51239   -8721.9189    46.860106    -8768.779   -28220.609 
   87800    291.94907   -8724.0928    41.771747   -8765.8646   -42271.706 
   88000    341.21248   -8715.2873      48.8203   -8764.1076   -29127.226 
   88200    311.88958   -8700.1649    44.624813   -8744.7897    4490.4501 
   88400    285.23569   -8719.7219    40.811204   -8760.5331   -48695.224 
   88600    319.52167   -8721.9672    45.716804    -8767.684    21207.914 
   88800    319.90012    -8711.405    45.770952   -8757.1759    1376.5909 
   89000    238.36188   -8722.5066    34.104552   -8756.6111    17325.957 
   89200    315.43992   -8722.4472    45.132792     -8767.58   -17590.088 
   89400    278.15467   -8702.8996    39.798059   -8742.6976   -34447.658 
   89600    302.47766   -8720.0948    43.278165    -8763.373   -8481.1306 
   89800    314.60133   -8720.7189    45.012807   -8765.7317     2207.301 
   90000    324.93449   -8706.7551    46.491264   -8753.2463    4327.9818 
   90200    235.98771   -8727.8834    33.764857   -8761.6483    2852.6287 
   90400    230.75881   -8720.1095    33.016713   -8753.1262    6741.5112 
   90600    355.27058    -8710.808    50.831718   -8761.6397   -49152.935 
   90800    286.58925   -8722.7197     41.00487   -8763.7245    2187.6272 
   91000    335.32439   -8720.6438    47.977839   -8768.6217     27060.18 
   91200    295.27181   -8718.2239    42.247161   -8760.4711   -21317.743 
   91400    336.22796   -8710.0598    48.107121    -8758.167   -8433.5625 
   91600    315.98766   -8725.7496    45.211162   -8770.9608   -29971.206 
   91800    282.69031   -8721.9826    40.447014   -8762.4296    8251.3364 
   92000    338.29713   -8707.6015    48.403175   -8756.0047   -27656.028 
   92200    300.83818    -8718.189    43.043591   -8761.2326    6510.4169 
   92400    307.12558   -8725.6198    43.943185    -8769.563    10534.529 
   92600    330.53091    -8705.336    47.291993    -8752.628   -2812.0565 
   92800    287.20167   -8721.7307    41.092494   -8762.8232   -21961.643 
   93000    316.01607   -8725.2747    45.215226   -8770.4899    -22475.21 
   93200    358.95344   -8716.0383    51.358657   -8767.3969     20481.07 
   93400    310.57452    -8719.944    44.436656   -8764.3806    3104.6259 
   93600    303.22083   -8729.8357    43.384497   -8773.2202   -15943.997 
   93800    277.45737   -8720.4053    39.698291   -8760.1036    4342.5507 
   94000    346.71891   -8713.5943    49.608154   -8763.2025    18738.438 
   94200    283.96235   -8726.3605    40.629015   -8766.9895   -1201.5585 
   94400    283.62506    -8729.751    40.580757   -8770.3317   -5013.9832 
   94600    339.45835   -8715.2235    48.569322   -8763.7928    47286.214 
   94800    257.16686   -8723.5219    36.795146    -8760.317    26980.944 
   95000    305.30345   -8721.7711    43.682477   -8765.4536   -17803.852 
   95200      344.143   -8719.0177    49.239595   -8768.2573   -8132.3945 
   95400    350.49907    -8705.772    50.149015    -8755.921   -3455.5096 
   95600    281.70288   -8724.9974    40.305733   -8765.3031     -29508.3 
   95800    324.11282   -8719.1795      46.3737   -8765.5532   -19331.096 
   96000    300.76051   -8711.3939    43.032478   -8754.4263    19920.978 
   96200    299.46667   -8716.4549    42.847357   -8759.3023   -16051.576 
   96400    272.86786    -8727.625    39.041628   -8766.6666   -11631.382 
   96600    336.57498   -8711.9864    48.156772   -8760.1432   -7829.1834 
   96800    326.42962   -8715.3602    46.705186   -8762.0654   -4942.5349 
   97000    228.87119   -8732.9037    32.746634   -8765.6503   -1515.3781 
   97200    296.32583    -8725.728    42.397969    -8768.126   -18049.347 
   97400    289.09545   -8715.2403    41.363455   -8756.6037   -22050.301 
   97600    304.11233   -8721.0954    43.512053   -8764.6074    2247.5883 
   97800    324.79413   -8723.6463    46.471181   -8770.1175     4991.285 
   98000     291.5192    -8717.955    41.710241   -8759.6652   -16637.494 
   98200    368.33156   -8710.4492    52.700467   -8763.1496   -21142.672 
   98400    273.87849   -8726.5546    39.186228   -8765.7408    42762.636 
   98600    261.39964     -8722.78    37.400769   -8760.1808   -2221.1123 
   98800    301.77366   -8719.7004    43.177438   -8762.8778   -32676.505 
   99000     340.8368   -8722.6195    48.766549    -8771.386    3792.4947 
   99200    350.32445   -8723.3718    50.124031   -8773.4958   -17238.212 
   99400    259.76701   -8714.8439    37.167174   -8752.0111    12598.101 
   99600    270.73833   -8732.6659    38.736938   -8771.4029   -4444.2727 
   99800    270.30307   -8727.5179    38.674661   -8766.1926    7517.5357 
  100000    287.36423   -8717.7771    41.115752   -8758.8929     30499.35 
  100200    377.34672   -8711.8287    53.990347    -8765.819    12835.792 
  100400    305.19296     -8728.24    43.666668   -8771.9067    -35181.29 
  100600    290.39647   -8714.3519    41.549602   -8755.9015    -911.5629 
  100800     234.6713   -8720.9932    33.576507   -8754.5697     24447.35 
  101000    251.07966   -8737.9789    35.924197   -8773.9031    14953.106 
  101200     256.0211   -8732.5767    36.631212    -8769.208    -18812.69 
  101400    298.20987   -8718.0732    42.667535   -8760.7408   -33727.554 
  101600    305.29478   -8723.5577    43.681236   -8767.2389   -22776.033 
  101800    278.24436   -8729.9355    39.810892   -8769.7464    7836.7729 
  102000    284.98246    -8721.011    40.774971    -8761.786    10963.777 
  102200     323.5372   -8709.9482    46.291341   -8756.2395   -24361.212 
  102400    371.83086   -8707.0922    53.201144   -8760.2934    886.39437 
  102600     296.5606   -8725.5255    42.431559   -8767.9571    12595.475 
  102800     320.2991   -8722.2938    45.828037   -8768.1218   -9650.7473 
  103000    295.52906   -8706.2355    42.283967   -8748.5195   -16523.074 
  103200    259.09535   -8726.7451    37.071074   -8763.8162   -18567.039 
  103400    293.33749   -8720.4741    41.970401   -8762.4445    12993.536 
  103600    305.91788   -8707.7119    43.770388   -8751.4823   -1803.4244 
  103800    342.78686   -8725.6614    49.045562   -8774.7069   -165.45401 
  104000    301.26216   -8722.7995    43.104254   -8765.9038    608.79698 
  104200    361.83192   -8709.4726    51.770507   -8761.2431    52167.208 
  104400    338.60746   -8718.4738    48.447577   -8766.9214   -20963.782 
  104600    282.99242    -8726.344    40.490239   -8766.8343   -34154.451 
  104800    333.40681   -8707.1798    47.703474   -8754.8833   -8769.3295 
  105000    278.41272   -8720.4128     39.83498   -8760.2478   -8109.1753 
  105200    269.91352   -8721.3213    38.618924   -8759.9403   -15522.945 
  105400    288.30337   -8719.9395    41.250123   -8761.1896   -26074.786 
  105600    343.49424   -8700.5901    49.146772   -8749.7369    30866.195 
  105800    310.11481   -8720.0196    44.370881   -8764.3905    19720.223 
  106000    335.56765   -8715.9419    48.012645   -8763.9545    19979.449 
  106200    271.89427    -8722.651    38.902328   -8761.5533   -9299.2516 
  106400    327.83454   -8719.3138      46.9062     -8766.22   -24257.601 
  106600    287.31443   -8707.4804    41.108628    -8748.589    16633.099 
  106800    234.24073     -8718.07    33.514901   -8751.5849    -16025.01 
  107000    271.93967   -8728.9178    38.908825   -8767.8266     26142.98 
  107200    344.76455   -8715.3622    49.328527   -8764.6907   -11011.703 
  107400    321.25119   -8713.8786    45.964261   -8759.8428    43979.196 
  107600    237.52847   -8725.8935    33.985308   -8759.8788     3409.072 
  107800    287.09143   -8721.4525    41.076722   -8762.5292      3909.88 
  108000     326.2192   -8708.9775    46.675078   -8755.6525    23618.174 
  108200    287.43674   -8715.8758    41.126128   -8757.0019   -28556.183 
  108400    273.78618   -8725.4587    39.173021   -8764.6317   -14100.636 
  108600    376.24962   -8711.5519    53.833375   -8765.3853   -5524.3318 
  108800    337.08202   -8714.7625    48.229318   -8762.9918     24086.53 
  109000    264.84933   -8726.1739    37.894347   -8764.0683     19188.98 
  109200    307.54765    -8718.594    44.003574   -8762.5976   -14990.838 
  109400    292.01157   -8724.5584    41.780689   -8766.3391   -21578.259 
  109600    246.56965   -8733.3217     35.27891   -8768.6006   -18068.001 
  109800    347.77363   -8715.8205    49.759063   -8765.5795   -14131.362 
  110000    290.78145   -8721.4956    41.604685   -8763.1003    4567.4409 
  110200    210.15415   -8734.1074     30.06862    -8764.176   -24792.081 
  110400    259.44021    -8721.149    37.120415   -8758.2694   -37917.583 
  110600     292.1295   -8716.5984    41.797562    -8758.396    12303.333 
  110800    294.06227    -8723.484    42.074101   -8765.5581   -24815.425 
  111000    313.85571   -8722.8307    44.906124   -8767.7368   -6824.0828 
  111200    294.25762   -8713.3294    42.102051   -8755.4315   -12044.724 
  111400    249.09409   -8733.7244    35.640104   -8769.3645    7499.0728 
  111600    278.87945   -8724.9881     39.90176   -8764.8898   -14664.494 
  111800    312.96785   -8715.8397    44.779091   -8760.6188    16713.451 
  112000    326.11321   -8715.3942    46.659914   -8762.0541     46735.49 
  112200    277.18243   -8723.7054    39.658952   -8763.3643   -46502.688 
  112400    309.68746   -8715.8855    44.309735   -8760.1952    25614.085 
  112600    341.33417   -8705.2591    48.837712   -8754.0968    3954.3615 
  112800     233.9587   -8726.0866     33.47455   -8759.5611    24322.374 
  113000    277.40378   -8717.8656    39.690622   -8757.5563    6366.5418 
  113200    366.60678   -8710.9482    52.453688   -8763.4019   -11813.876 
  113400    251.47524   -8727.9287    35.980797   -8763.9095   -14072.104 
  113600    306.45633   -8714.2379     43.84743   -8758.0853    10543.583 
  113800    328.04291   -8708.8692    46.936013   -8755.8052   -41982.731 
  114000    279.46634   -8726.7898    39.985732   -8766.7755   -19431.072 
  114200    269.73021   -8718.5018    38.592697   -8757.0945    17137.248 
  114400    366.91415    -8714.666    52.497666   -8767.1636    7088.9494 
  114600    279.09536   -8718.3289    39.932652   -8758.2616   -28005.043 
  114800    275.61276   -8723.6582    39.434365   -8763.0926    3879.9756 
  115000    242.17288   -8737.6732    34.649825   -8772.3231   -5089.3235 
  115200    301.60993   -8721.8587    43.154012   -8765.0127   -27608.791 
  115400    302.61114   -8711.1218    43.297264   -8754.4191   -56062.998 
  115600     257.4865   -8725.3533     36.84088   -8762.1942     3900.131 
  115800    328.14552    -8724.747    46.950694   -8771.6977     -3360.47 
  116000    359.41803   -8711.8535    51.425129   -8763.2786    -36415.48 
  116200    307.84654   -8721.9094    44.046339   -8765.9557    26433.798 
  116400    363.09318   -8712.3789    51.950967   -8764.3299    11321.447 
  116600    262.81513   -8723.1423    37.603295   -8760.7456   -33365.155 
  116800     311.9074   -8715.4118    44.627362   -8760.0392    11571.643 
  117000    303.06615   -8721.0399    43.362366   -8764.4023    6226.8479 
  117200    301.51524   -8726.9446    43.140464   -8770.0851    11198.162 
  117400    274.93418   -8714.7818    39.337275   -8754.1191    52454.927 
  117600    244.60389   -8725.2524    34.997651   -8760.2501   -10013.646 
  117800    296.77938   -8730.9163    42.462862   -8773.3791    25888.021 
  118000    287.62816   -8718.1651    41.153515   -8759.3186    19306.074 
  118200    311.91022   -8715.4257    44.627765   -8760.0535    11440.135 
  118400    299.98201   -8723.6949    42.921091    -8766.616   -2929.7137 
  118600    295.59706   -8735.5158    42.293697   -8777.8095    30012.426 
  118800     287.2865   -8721.3595    41.104631   -8762.4642    30925.992 
  119000    303.08941   -8714.0458    43.365694   -8757.4115   -29705.169 
  119200    359.08245   -8698.8966    51.377116   -8750.2737    4948.8979 
  119400    325.22592   -8721.1019    46.532961   -8767.6348    17588.201 
  119600    252.07686     -8728.04    36.066875   -8764.1068    6850.4524 
  119800    304.14832    -8716.354    43.517202   -8759.8712     14751.25 
  120000    294.05435   -8717.1944    42.072967   -8759.2674   -19027.716 
  120200    241.50056   -8733.5547     34.55363   -8768.1083    1156.2953 
  120400    308.56741    -8725.086     44.14948   -8769.2355   -18367.998 
  120600    306.09115   -8714.9263     43.79518   -8758.7215    6598.2998 
  120800    306.54956   -8710.2839    43.860768   -8754.1447   -9652.4576 
  121000     248.1058    -8729.692    35.498701   -8765.1907    -17851.88 
  121200    285.10152   -8717.1253    40.792006   -8757.9173   -8997.9065 
  121400    327.67934   -8719.1633    46.883994   -8766.0473    2196.9673 
  121600    278.11443   -8723.3497    39.792302    -8763.142   -21973.083 
  121800     294.9009   -8717.7304    42.194091   -8759.9245   -29831.568 
  122000    274.67803   -8726.9384    39.300626    -8766.239   -4020.5055 
  122200    333.16731   -8712.7763    47.669206   -8760.4455    24217.019 
  122400    296.03462   -8719.3567    42.356302    -8761.713   -18538.015 
  122600    292.84748   -8710.0316    41.900291   -8751.9319   -23086.221 
  122800    319.59989   -8711.6047    45.727995   -8757.3327   -51157.784 
  123000    299.86954   -8720.9562    42.904999   -8763.8612    18192.087 
  123200    256.73725   -8727.2758    36.733678   -8764.0094     14051.66 
  123400    309.47704   -8709.5044    44.279629    -8753.784   -9935.8388 
  123600    303.16226   -8723.9153    43.376118   -8767.2914    14685.612 
  123800    274.44372   -8721.2782      39.2671   -8760.5453   -8924.9166 
  124000    324.82787   -8714.6257    46.476009   -8761.1017    19048.124 
  124200    236.96386   -8732.0762    33.904525   -8765.9807    13075.471 
  124400    335.87241   -8722.3228    48.056249    -8770.379    3266.1546 
  124600    266.89739   -8720.7138    38.187381   -8758.9012      13310.7 
  124800    352.64763   -8711.5755    50.456429   -8762.0319    8952.4272 
  125000     325.7506   -8708.3294    46.608031   -8754.9375   -7992.3453 
  125200    320.67294   -8723.5793    45.881526   -8769.4608    7650.7774 
  125400    285.74266   -8724.1355     40.88374   -8765.0193     1695.832 
  125600    342.90277   -8713.5534    49.062146   -8762.6155   -17335.732 
  125800    284.18958   -8723.9682    40.661528   -8764.6297   -7854.5241 
  126000    272.38037   -8724.5987    38.971878   -8763.5706    1413.3412 
  126200    299.05382   -8723.2354    42.788286   -8766.0237    15541.492 
  126400    292.39657   -8729.0534    41.835774   -8770.8892    32707.438 
  126600    315.67489   -8711.3956    45.166411    -8756.562    20229.582 
  126800    322.81276   -8723.7855    46.187688   -8769.9732    5499.8815 
  127000    356.31017   -8713.1688     50.98046   -8764.1492   -8561.4189 
  127200    302.82927    -8713.504    43.328473   -8756.8324   -8713.9218 
  127400    302.08795   -8723.1531    43.222407   -8766.3755    29094.097 
  127600    236.84468   -8725.2594    33.887473   -8759.1468   -18664.409 
  127800    336.61311   -8709.8582    48.162228   -8758.0204    8490.3634 
  128000    297.87246   -8724.6726    42.619259   -8767.2919   -14721.871 
  128200    308.10088   -8721.6077     44.08273   -8765.6904     9428.825 
  128400    354.97549   -8708.8774    50.789496   -8759.6669    31159.762 
  128600    285.28376   -8724.1092    40.818082   -8764.9273   -21810.647 
  128800    293.95658   -8720.4827     42.05898   -8762.5417    49234.721 
  129000    302.95523    -8711.429    43.346496   -8754.7754   -30329.539 
  129200    339.23545   -8722.8976    48.537429    -8771.435   -9042.4846 
  129400    279.47452   -8722.7822    39.986902   -8762.7691    -2009.328 
  129600    307.91139   -8713.6226    44.055618   -8757.6782    8969.3417 
  129800    260.09563   -8730.4362    37.214192   -8767.6504   -22965.698 
  130000    291.73243   -8724.2011    41.740749   -8765.9418   -43860.115 
  130200     309.3315   -8718.4622    44.258806    -8762.721    -20649.06 
  130400    375.18875   -8699.3488    53.681588   -8753.0304   -16599.811 
  130600    292.44381   -8718.3358    41.842533   -8760.1783     10069.12 
  130800     255.1393   -8722.3775    36.505046   -8758.8825    25.496564 
  131000    317.60894   -8712.6821    45.443132   -8758.1252   -8797.9426 
  131200    376.45722   -8707.2659    53.863078   -8761.1289    4765.8733 
  131400    267.81025   -8724.9625    38.317992   -8763.2805    37617.501 
  131600    265.76412   -8716.0043    38.025233   -8754.0295   -7153.0024 
  131800    348.51345    -8707.416    49.864915   -8757.2809   -2041.5145 
  132000    308.08282   -8722.3996    44.080146   -8766.4798    22532.523 
  132200    286.60644   -8724.0014    41.007329   -8765.0087   -248.30223 
  132400    358.61285   -8707.3689    51.309925   -8758.6788    28112.516 
  132600    291.46423   -8721.4952    41.702376   -8763.1976     842.3354 
  132800    264.49837   -8725.9633    37.844131   -8763.8074   -16971.426 
  133000    336.86583   -8708.1061    48.198386   -8756.3045   -5515.7219 
  133200    309.12584    -8721.802    44.229379   -8766.0314    1211.1914 
  133400     229.5373   -8726.4784     32.84194   -8759.3203   -10227.076 
  133600    292.97732   -8713.1939    41.918868   -8755.1128    15319.133 
  133800    288.39758   -8721.8042    41.263603   -8763.0678   -26654.972 
  134000    230.27771   -8741.8006    32.947878   -8774.7485    10339.154 
  134200    245.76169   -8733.5671    35.163308   -8768.7304   -46063.019 
  134400     297.9641   -8718.6253    42.632371   -8761.2577   -17688.387 
  134600    268.01347   -8715.9856    38.347067   -8754.3327   -430.70072 
  134800      284.336    -8730.427    40.682477   -8771.1095   -16174.798 
  135000    310.64271   -8714.2085    44.446412    -8758.655    3390.7715 
  135200    332.98348   -8714.0128    47.642905   -8761.6557   -25137.704 
  135400     282.1941   -8728.1118    40.376017   -8768.4878   -6950.9307 
  135600    315.80033   -8716.9696    45.184358   -8762.1539   -26470.683 
  135800    343.14592   -8694.0504    49.096935   -8743.1473    24985.414 
  136000    323.77554   -8717.8209    46.325443   -8764.1463    5453.0355 
  136200    292.06463   -8729.6244    41.788281   -8771.4127   -38568.525 
  136400    285.33826   -8717.2487    40.825879   -8758.0746    37906.033 
  136600    336.02377    -8719.095    48.077906   -8767.1729    13413.101 
  136800    236.07231   -8723.4111    33.776962    -8757.188   -46435.771 
  137000    257.00457   -8719.2076    36.771927   -8755.9795   -26355.016 
  137200    289.14478   -8722.5574    41.370512   -8763.9279    2279.2206 
  137400    345.25514   -8704.5903    49.398719    -8753.989   -7997.7391 
  137600    243.32054   -8716.4303    34.814031   -8751.2443    14080.823 
  137800    300.13313   -8723.5459    42.942712   -8766.4886    5902.9768 
  138000    241.10684    -8723.032    34.497297   -8757.5293   -3475.8169 
  138200    260.83416   -8717.9488     37.31986   -8755.2686   -1678.5869 
  138400    240.64527   -8732.1592    34.431256   -8766.5905     45818.66 
  138600    315.29523   -8723.9691     45.11209   -8769.0812    -6048.557 
  138800    303.64714    -8713.202    43.445494   -8756.6475    29160.232 
  139000     326.7012   -8707.1728    46.744043   -8753.9169    7150.0514 
  139200    303.34276   -8723.6219    43.401943   -8767.0239   -41411.965 
  139400    345.72244   -8720.1171    49.465581   -8769.5827   -4180.7274 
  139600    269.52073   -8715.8852    38.562724   -8754.4479     17243.51 
  139800    256.36617   -8728.5468    36.680585   -8765.2274    14437.275 
  140000    338.77113    -8713.133    48.470994    -8761.604    12273.256 
  140200    275.21835   -8715.8881    39.377934    -8755.266    2225.5624 
  140400    296.18333    -8724.861    42.377579   -8767.2385   -10525.772 
  140600    308.76289    -8713.217     44.17745   -8757.3945    10941.577 
  140800    292.77911   -8719.7271    41.890507   -8761.6176    15041.576 
  141000    274.77762   -8723.0401    39.314874    -8762.355    4245.0439 
  141200    357.66117   -8709.3733    51.173761   -8760.5471    5460.9328 
  141400    299.12015   -8720.2544    42.797777   -8763.0522   -18085.146 
  141600    276.00598    -8720.554    39.490627   -8760.0446   -17919.363 
  141800    284.39557   -8729.0805    40.691001   -8769.7715   -28791.043 
  142000    269.61739    -8732.807    38.576555   -8771.3836    5256.2701 
  142200    290.35274   -8713.5934    41.543345   -8755.1368    33766.891 
  142400    293.94572   -8721.1588    42.057425   -8763.2163   -5402.9005 
  142600    314.12515   -8724.1214    44.944675   -8769.0661    89.501405 
  142800    286.06609   -8720.7707    40.930017   -8761.7007    8326.7809 
  143000    357.36741   -8712.9782     51.13173   -8764.1099    23698.394 
  143200    276.99615   -8730.9503      39.6323   -8770.5826   -537.31982 
  143400    318.28568   -8722.9472    45.539959   -8768.4872    4519.6784 
  143600    289.45203   -8723.0532    41.414474   -8764.4677    12887.874 
  143800    313.81909   -8717.6305    44.900885   -8762.5314   -26005.724 
  144000    313.39502   -8708.6812    44.840209   -8753.5214    223.05656 
  144200    287.77416   -8719.5658    41.174406   -8760.7402    35597.478 
  144400    305.97312   -8718.2408    43.778292   -8762.0191    12408.634 
  144600    219.98667   -8733.7936    31.475447   -8765.2691   -12323.563 
  144800    259.29399   -8721.5144    37.099495   -8758.6139    -7750.634 
  145000    280.51077   -8717.1299    40.135167   -8757.2651   -11331.772 
  145200    372.38624   -8702.3218    53.280607   -8755.6024   -36977.605 
  145400    259.74205   -8720.0283    37.163602   -8757.1919    24644.698 
  145600    358.83249   -8719.6857    51.341352   -8771.0271    6977.6737 
  145800    296.20173   -8730.9616    42.380213   -8773.3418   -7693.0742 
  146000    290.05425   -8723.9836    41.500638   -8765.4842   -18224.924 
  146200     290.9941   -8719.1089    41.635111    -8760.744    8967.9349 
  146400    292.00729   -8725.2617    41.780077   -8767.0418   -7922.4238 
  146600    269.46697   -8730.8384    38.555034   -8769.3934   -15654.987 
  146800    279.25908   -8713.3301    39.956078   -8753.2861   -22722.542 
  147000    256.95795    -8715.057    36.765256   -8751.8223     13102.64 
  147200    251.87547    -8732.656     36.03806   -8768.6941     20682.55 
  147400    315.02131   -8718.0275    45.072897   -8763.1004   -17638.444 
  147600    290.09266   -8723.6036    41.506134   -8765.1097   -42716.804 
  147800    284.78779   -8736.0972    40.747118   -8776.8443    34112.196 
  148000    263.91165   -8716.9106    37.760184   -8754.6708     20462.54 
  148200    351.27265   -8710.5986    50.259699   -8760.8583    15104.284 
  148400    221.55216   -8729.5791    31.699436   -8761.2786    35053.801 
  148600    303.75009   -8720.4166    43.460223   -8763.8768    8570.9605 
  148800    228.09624   -8728.6294    32.635755   -8761.2651   -3723.6439 
  149000    342.86183   -8713.0587    49.056287    -8762.115        28243 
  149200    294.11513   -8723.9766    42.081665   -8766.0582   -18133.049 
  149400    272.89831   -8723.1393    39.045985   -8762.1852    9830.8376 
  149600    339.04582   -8705.0397    48.510297     -8753.55    5563.5578 
  149800     335.2388   -8724.7026    47.965593   -8772.6682    138.99073 
  150000    296.96694   -8720.7602    42.489698   -8763.2499    9540.3377 
  150200    279.69202   -8716.6565    40.018022   -8756.6745     41041.61 
  150400    313.04258   -8719.9426    44.789783   -8764.7324   -2365.6799 
  150600    264.88292   -8721.5271    37.899152   -8759.4262    10307.953 
  150800    274.25821     -8716.98    39.240558   -8756.2206   -64047.722 
  151000    297.07534   -8722.7245    42.505208   -8765.2297    18081.368 
  151200    317.01444   -8724.5168    45.358072   -8769.8749    6192.8323 
  151400    339.17225   -8706.8341    48.528387   -8755.3625   -1996.2349 
  151600    318.32857   -8719.6103    45.546097   -8765.1564    5594.1172 
  151800    256.64379   -8727.9076    36.720306   -8764.6279   -14600.942 
  152000    300.95962   -8724.1585    43.060966   -8767.2195    27481.969 
  152200     300.8869   -8711.6278    43.050561   -8754.6784   -10386.259 
  152400    265.84034   -8726.0812    38.036138   -8764.1173   -35981.212 
  152600    229.81766   -8724.8722    32.882054   -8757.7543   -12589.219 
  152800    311.06181   -8716.8476    44.506376   -8761.3539   -9211.4872 
  153000    325.27401   -8717.8792    46.539842    -8764.419   -48436.939 
  153200    280.31261   -8728.6518    40.106814   -8768.7586   -11331.207 
  153400    308.34867   -8713.0835    44.118183   -8757.2017   -14764.927 
  153600    328.58953   -8713.0958    47.014222   -8760.1101    1564.6374 
  153800    300.84012   -8720.8499    43.043868   -8763.8938    9042.1049 
  154000    276.87219   -8722.3039    39.614563   -8761.9185    28987.065 
  154200    253.88341   -8735.0133    36.325355   -8771.3386   -26973.098 
  154400    312.20792   -8718.4998    44.670361   -8763.1701   -5923.5204 
  154600     293.5862   -8722.6118    42.005986   -8764.6178   -4519.7837 
  154800    239.25845   -8727.5551    34.232831   -8761.7879    54835.829 
  155000    304.02873   -8713.0767    43.500091   -8756.5768   -29649.104 
  155200    289.76833   -8721.0951    41.459729   -8762.5548   -12374.631 
  155400    273.86067   -8735.1967    39.183678   -8774.3804   -10349.554 
  155600    279.98682   -8723.6735    40.060201   -8763.7337    9145.1295 
  155800    330.16093   -8718.0225    47.239057   -8765.2616   -714.52142 
  156000    263.69281   -8728.5669    37.728873   -8766.2958    33322.695 
  156200     270.9926   -8723.5757    38.773319    -8762.349   -8177.8132 
  156400    317.22798   -8716.5244    45.388625    -8761.913   -15836.863 
  156600    264.15326   -8720.0252    37.794754     -8757.82    10683.822 
  156800    318.43313   -8723.8122    45.561056   -8769.3733    -2411.374 
  157000     280.7695   -8725.1149    40.172187   -8765.2871   -48624.825 
  157200    300.18905   -8711.7413    42.950713    -8754.692   -482.66321 
  157400    341.70587   -8718.7969    48.890894   -8767.6878   -10559.805 
  157600    257.69059   -8732.0232    36.870081   -8768.8932   -7017.2441 
  157800    290.60376   -8723.5123    41.579261   -8765.0916   -33435.121 
  158000     303.2001   -8716.2852    43.381531   -8759.6667   -26219.201 
  158200    300.40378   -8728.2895    42.981437   -8771.2709   -26711.236 
  158400     231.9055   -8726.6276     33.18078   -8759.8084   -25798.999 
  158600     286.5166    -8717.249    40.994475   -8758.2435   -30312.503 
  158800    270.51114   -8721.6557    38.704431   -8760.3602   -10338.353 
  159000    345.11971   -8720.9668    49.379343   -8770.3461    10449.879 
  159200    227.53591   -8730.2884    32.555584    -8762.844    16907.591 
  159400    338.74044   -8712.2402    48.466603   -8760.7068    27657.167 
  159600    285.44823   -8718.5914    40.841614    -8759.433   -20073.701 
  159800    272.78321   -8733.7511    39.029517   -8772.7806    -12574.86 
  160000    279.12766   -8724.8979    39.937274   -8764.8351    12480.043 
  160200    326.86843   -8716.1515     46.76797   -8762.9194    280.43073 
  160400    283.31091   -8720.8733    40.535808   -8761.4091   -18077.625 
  160600    247.06347   -8732.8717    35.349565   -8768.2213   -45856.402 
  160800    313.31404   -8717.2612    44.828623   -8762.0898   -9743.4646 
  161000    304.50503   -8724.4961    43.568239   -8768.0643   -7342.2231 
  161200    266.89471   -8730.0504    38.186997   -8768.2374    -3492.224 
  161400    277.52809    -8713.165     39.70841   -8752.8735    59105.363 
  161600    299.04294   -8716.0962     42.78673    -8758.883    -16906.92 
  161800    281.57129    -8730.187    40.286905   -8770.4739   -27913.392 
  162000    284.77637   -8722.0775    40.745485    -8762.823    8489.7593 
  162200    289.29057   -8719.8767    41.391372   -8761.2681    1719.4889 
  162400    287.29375     -8725.86    41.105669   -8766.9657    4386.8842 
  162600    278.28093   -8729.7855    39.816124   -8769.6016   -14585.543 
  162800    337.17567   -8715.2125    48.242717   -8763.4552    17024.587 
  163000    340.29772   -8708.1192    48.689417   -8756.8086    20758.769 
  163200    289.01279    -8718.812    41.351626   -8760.1636    35576.375 
  163400    308.93331   -8719.5214    44.201833   -8763.7232   -47827.739 
  163600    328.77919   -8727.8231    47.041359   -8774.8644   -7399.5149 
  163800    297.54948   -8729.0904    42.573047   -8771.6634    1139.1306 
  164000     319.0988   -8717.2054      45.6563   -8762.8617   -1902.8273 
  164200    295.54087   -8719.6114    42.285658    -8761.897    3771.5957 
  164400    311.44326   -8730.6686    44.560954   -8775.2296   -11324.371 
  164600    387.45151   -8716.4201    55.436129   -8771.8562   -33194.265 
  164800     318.8329   -8712.1392    45.618254   -8757.7574    8239.1488 
  165000     283.0817   -8729.9395    40.503013   -8770.4426   -14235.735 
  165200    354.79578   -8716.4001    50.763784   -8767.1639     23338.91 
  165400    297.15946   -8725.7832    42.517244   -8768.3004   -13768.734 
  165600    412.66562   -8708.3244    59.043736   -8767.3682    24033.042 
  165800    246.25104    -8721.941    35.233323   -8757.1743    9271.8842 
  166000    338.72717   -8711.4284    48.464705   -8759.8931    42298.266 
  166200    243.51153   -8726.8879    34.841358   -8761.7293    9684.4739 
  166400    287.51559   -8719.9437    41.137409   -8761.0811    11611.299 
  166600    327.67042    -8717.141    46.882718   -8764.0237    2249.7751 
  166800    332.84709   -8712.8447    47.623389   -8760.4681   -3683.9076 
  167000    282.40256   -8724.0122    40.405843    -8764.418    4105.2157 
  167200    270.31313   -8732.9597    38.676101   -8771.6358   -229.93828 
  167400    323.34598   -8718.9579    46.263982   -8765.2219   -6706.8157 
  167600    337.17176   -8720.6978    48.242158     -8768.94    33769.797 
  167800    324.53964    -8709.299    46.434769   -8755.7338   -9221.5879 
  168000    246.97328   -8728.4531    35.336661   -8763.7898    33837.486 
  168200    291.48602   -8720.6555    41.705494    -8762.361    22932.903 
  168400    245.31961   -8734.0097    35.100056   -8769.1097    26942.045 
  168600    281.14526   -8719.5817    40.225949   -8759.8077   -26416.412 
  168800    254.20748   -8722.0706    36.371722   -8758.4423   -18014.531 
  169000    331.04899   -8708.3463     47.36612   -8755.7124   -7175.8996 
  169200    243.96244   -8726.5423    34.905874   -8761.4482    4343.8196 
  169400    344.79841   -8712.9629    49.333372   -8762.2962   -57744.234 
  169600    272.92351   -8729.0058    39.049591   -8768.0554   -15792.189 
  169800    288.04353   -8724.5822    41.212947   -8765.7952    3988.8169 
  170000    281.55044    -8717.384    40.283922   -8757.6679   -12246.366 
  170200      321.314   -8715.0443    45.973248   -8761.0176   -36035.262 
  170400    298.95763   -8720.8999    42.774524   -8763.6744   -13177.882 
  170600    254.22291   -8726.2858     36.37393   -8762.6598   -6623.9122 
  170800    307.75478   -8720.1352     44.03321   -8764.1684    7234.4237 
  171000    223.20183   -8730.8981    31.935468   -8762.8336   -8442.5059 
  171200    344.64998   -8730.5873    49.312133   -8779.8994   -20148.043 
  171400    271.56677   -8719.7146     38.85547   -8758.5701    19234.858 
  171600    339.09784   -8716.2464     48.51774   -8764.7642   -4005.7257 
  171800     264.3075   -8722.2713    37.816822   -8760.0882   -9601.8321 
  172000    380.12471   -8711.7402    54.387819   -8766.1281    37884.238 
  172200    242.27197   -8730.0868    34.664003   -8764.7508   -11568.124 
  172400    373.01394   -8717.2283    53.370417   -8770.5987    4213.9014 
  172600    388.38353   -8700.4082    55.569481   -8755.9777    40444.884 
  172800    328.25295   -8717.2365    46.966066   -8764.2026    26623.303 
  173000    302.50585   -8727.2517    43.282199   -8770.5339      19337.9 
  173200    254.04748   -8726.3917    36.348829   -8762.7406   -17356.048 
  173400    332.76261   -8721.6393    47.611302   -8769.2506   -21981.833 
  173600    271.44849   -8725.6907    38.838546   -8764.5292   -9345.9844 
  173800    314.17334   -8712.6621     44.95157   -8757.6137    1244.6692 
  174000    297.63139   -8726.0138    42.584767   -8768.5986    34809.197 
  174200    301.28597    -8719.016     43.10766   -8762.1237   -6693.6651 
  174400    265.41799   -8719.2127    37.975709   -8757.1885    15863.419 
  174600     249.7877   -8737.2051    35.739346   -8772.9444    13274.291 
  174800    288.03867   -8722.8733    41.212251   -8764.0855     4606.058 
  175000    294.38853   -8718.9465    42.120781   -8761.0673    12378.982 
  175200     251.0645   -8729.5432    35.922028   -8765.4652   -3252.7395 
  175400    313.28162   -8719.8672    44.823984   -8764.6911   -13795.164 
  175600    306.92998   -8711.4305    43.915199   -8755.3457   -18457.516 
  175800    286.47473   -8721.3009    40.988485   -8762.2894    34101.325 
  176000    277.43857   -8715.2206    39.695601   -8754.9162   -28638.824 
  176200    268.58621   -8732.0086    38.429015   -8770.4376   -22995.778 
  176400    313.15209   -8718.9646    44.805451   -8763.7701    6321.1072 
  176600    318.43819   -8717.7357     45.56178   -8763.2974    7896.7088 
  176800    319.93593   -8719.0429    45.776076   -8764.8189   -7542.9866 
  177000    286.17167   -8724.9131    40.945122   -8765.8582   -16432.196 
  177200    253.80784   -8719.2684    36.314542   -8755.5829   -33934.447 
  177400    365.33961   -8713.0906    52.272383    -8765.363   -32675.178 
  177600    313.19347   -8722.4043    44.811372   -8767.2157   -4658.7446 
  177800    254.57467   -8739.0968    36.424259   -8775.5211   -5227.4842 
[...]
  950000    268.82552   -8720.3817    38.463255    -8758.845    16857.854 
  950200    274.64931   -8727.4093    39.296516   -8766.7058   -8889.9204 
  950400    332.49516   -8725.3612    47.573036   -8772.9342     51371.64 
  950600    327.27242   -8712.8586    46.825773   -8759.6844    39131.543 
  950800    322.83835   -8719.0652    46.191351   -8765.2566   -2541.1472 
  951000    264.50228   -8731.6141    37.844691   -8769.4587    5502.9394 
  951200    369.46078   -8713.3368    52.862036   -8766.1989   -30957.924 
  951400    307.65951   -8724.4605    44.019579   -8768.4801   -18949.052 
  951600    312.03386   -8720.5369    44.645456   -8765.1824    22332.914 
  951800    337.23614   -8716.2722     48.25137   -8764.5236    19805.268 
  952000    280.97346   -8727.7817    40.201368   -8767.9831    3863.2205 
  952200    236.05797   -8740.7691     33.77491    -8774.544    -8431.715 
  952400    301.81509   -8722.9643    43.183366   -8766.1476    36010.512 
  952600     278.5969   -8717.3384    39.861334   -8757.1997   -16355.162 
  952800    387.60157   -8708.6836      55.4576   -8764.1412   -21103.277 
  953000    271.75435   -8726.4881    38.882308   -8765.3705   -20309.491 
  953200    272.22483    -8715.818    38.949625   -8754.7677   -25895.495 
  953400    316.71573     -8710.03    45.315332   -8755.3454   -16700.877 
  953600    303.96693   -8721.6264    43.491249   -8765.1177   -4903.7027 
  953800    254.85606    -8726.605     36.46452   -8763.0695   -32946.343 
  954000     329.2371   -8708.4421    47.106876   -8755.5489    42725.019 
  954200    250.35445   -8724.2809    35.820434   -8760.1013    21357.048 
  954400     323.8732   -8719.4578    46.339416   -8765.7972    21895.251 
  954600    362.60519   -8700.4338    51.881146   -8752.3149   -10366.894 
  954800    313.31907   -8717.3739    44.829343   -8762.2033   -43437.048 
  955000    264.48534   -8722.3361    37.842267   -8760.1784   -1823.2093 
  955200    295.14482   -8724.9868    42.228991   -8767.2158   -15598.683 
  955400    318.52986   -8720.1777    45.574897   -8765.7526    6983.8986 
  955600    299.55882   -8708.5558    42.860541   -8751.4163   -3480.6463 
  955800    297.32446   -8725.7665    42.540852   -8768.3074   -15716.399 
  956000    299.92923   -8724.7436     42.91354   -8767.6571   -5889.6778 
  956200    320.38543   -8710.9635     45.84039   -8756.8039    92.656584 
  956400    325.50387    -8720.261     46.57273   -8766.8337    47298.076 
  956600    253.26202   -8726.4963    36.236447   -8762.7328    15807.852 
  956800    258.92147   -8719.4653    37.046195   -8756.5115    11916.232 
  957000    273.69928   -8720.9651    39.160587   -8760.1257   -39343.973 
  957200    296.52501   -8727.9159    42.426467   -8770.3423   -12078.138 
  957400    326.56673   -8712.9956    46.724803   -8759.7204    42641.708 
  957600    269.34902   -8719.2322    38.538157   -8757.7704    6546.2887 
  957800    304.75651   -8727.4215    43.604221   -8771.0257    10183.244 
  958000     281.6991   -8714.8369    40.305192   -8755.1421    25180.461 
  958200    277.03694   -8722.6323    39.638135   -8762.2704     16747.31 
  958400    266.50066   -8725.9328    38.130616   -8764.0634   -34111.696 
  958600     343.0802    -8714.699    49.087532   -8763.7865   -20836.554 
  958800     249.1183   -8726.6243    35.643569   -8762.2679   -18412.899 
  959000    270.86398   -8738.1546    38.754916   -8776.9095    2291.9306 
  959200    327.37484   -8717.3928    46.840426   -8764.2332   -20684.686 
  959400    265.01088   -8716.8659     37.91746   -8754.7833    16066.359 
  959600     271.8434   -8731.4386    38.895051   -8770.3337   -23919.852 
  959800    306.17921   -8722.1159    43.807779   -8765.9236   -18542.622 
  960000    279.54926   -8714.1981    39.997596   -8754.1957    18591.478 
  960200    353.13912   -8714.7169     50.52675   -8765.2437   -2456.0882 
  960400    252.70435   -8729.1335    36.156656   -8765.2902    22444.989 
  960600    295.59752   -8713.5632    42.293762   -8755.8569    3170.8552 
  960800    317.06789   -8719.2523    45.365719   -8764.6181    32252.116 
  961000    259.75903   -8726.7317    37.166031   -8763.8977   -10099.449 
  961200    311.97266   -8720.4864    44.636699   -8765.1231    38618.626 
  961400    346.59647    -8720.356    49.590636   -8769.9467    29363.637 
  961600    275.98848   -8729.1396    39.488123   -8768.6277    23482.059 
  961800    365.79342   -8713.3365    52.337314   -8765.6738    5870.9997 
  962000    304.82839   -8716.3444    43.614505   -8759.9589     24116.32 
  962200    247.74452   -8729.6888    35.447009   -8765.1359   -110.46089 
  962400    284.61965   -8738.5393    40.723061   -8779.2624    3499.4613 
  962600    319.73553   -8720.8269    45.747403   -8766.5743    23862.658 
  962800    301.70704   -8712.4708    43.167906   -8755.6387    34269.347 
  963000    271.33612    -8722.439    38.822468   -8761.2615    23720.763 
  963200    287.85106   -8721.5865    41.185408   -8762.7719   -12088.436 
  963400    349.27932    -8701.604    49.974494   -8751.5785   -21396.982 
  963600    351.67745   -8721.6499    50.317617   -8771.9675    35240.123 
  963800    285.98091    -8724.182    40.917829   -8765.0999   -26163.416 
  964000    320.65252   -8711.0539    45.878604   -8756.9325    -16520.95 
  964200     281.1828   -8719.3037     40.23132    -8759.535   -1894.5892 
  964400    208.66157    -8728.241    29.855065    -8758.096    -48822.58 
  964600    388.92025   -8708.4959    55.646275   -8764.1422    8513.1333 
  964800    305.40451   -8718.4003    43.696936   -8762.0972    6972.2693 
  965000    296.92618   -8727.8843    42.483866   -8770.3682    1343.2269 
  965200    255.29016   -8735.9782    36.526631   -8772.5048   -40377.105 
  965400    259.82021   -8723.2152    37.174786     -8760.39    6234.7256 
  965600    292.59793   -8712.2921    41.864585   -8754.1567    1939.2391 
  965800    293.66613   -8721.5054    42.017422   -8763.5228   -34728.476 
  966000    254.07226   -8728.4918    36.352375   -8764.8442    34211.735 
  966200    317.26896   -8710.0932    45.394488   -8755.4877    3725.2677 
  966400    309.64832   -8713.5277    44.304135   -8757.8318   -10063.141 
  966600    277.93439   -8723.1437    39.766543   -8762.9103    15129.696 
  966800    351.54559   -8705.2874     50.29875   -8755.5861    16538.507 
  967000     266.4065   -8721.2174    38.117144   -8759.3345     1124.546 
  967200    306.23694   -8723.7827    43.816039   -8767.5987    17305.912 
  967400    314.31304   -8709.7864    44.971559   -8754.7579    23411.862 
  967600    336.70767   -8706.0929    48.175757   -8754.2686   -29.808627 
  967800    298.40932   -8723.9558    42.696072   -8766.6519    31828.327 
  968000    332.45753   -8718.2563    47.567652    -8765.824   -25070.959 
  968200    333.66199   -8712.0503    47.739984   -8759.7903   -8914.0067 
  968400    290.46898   -8722.1621    41.559977    -8763.722    12522.778 
  968600    253.77093   -8729.5246    36.309261   -8765.8338    20493.567 
  968800    290.63292    -8730.833    41.583433   -8772.4165   -4681.6939 
  969000    289.99003   -8713.7904    41.491449   -8755.2818   -12094.431 
  969200     280.8819   -8718.3666    40.188268   -8758.5549    401.68191 
  969400    272.92534   -8731.4978    39.049853   -8770.5477   -24937.019 
  969600    325.51043   -8720.3049    46.573669   -8766.8786    34723.961 
  969800    313.54319   -8717.0767    44.861409   -8761.9381    21155.943 
  970000    311.96634   -8731.4026    44.635796   -8776.0384    2546.6391 
  970200    341.30799   -8717.3392    48.833966   -8766.1732   -12603.972 
  970400    317.74798   -8713.2361    45.463026   -8758.6991     7767.062 
  970600    346.62617   -8720.1015    49.594885   -8769.6963     8258.075 
  970800    259.09493   -8721.6401    37.071013   -8758.7111   -10953.133 
  971000    347.48366   -8705.6781    49.717574   -8755.3956   -23139.924 
  971200    297.43071   -8724.4678    42.556054   -8767.0238   -17804.908 
  971400    271.11605   -8726.7534    38.790982   -8765.5444    6238.6167 
  971600     330.7124   -8708.5206     47.31796   -8755.8386   -7230.5439 
  971800    325.29997   -8719.5455    46.543557    -8766.089   -9710.6963 
  972000     293.5696   -8722.6567     42.00361   -8764.6603    15060.907 
  972200    302.01011   -8713.9377    43.211269    -8757.149    22939.363 
  972400    250.60142   -8728.2961    35.855771   -8764.1518    30793.713 
  972600    301.03978   -8724.3702    43.072435   -8767.4426    18472.009 
  972800    339.30397   -8707.3797    48.547233   -8755.9269   -1474.2043 
  973000    302.37617   -8726.5765    43.263644   -8769.8402    9484.1121 
  973200    322.22709   -8719.7134    46.103893   -8765.8173   -8450.1411 
  973400    358.14619   -8704.6454    51.243156   -8755.8886   -4633.3158 
  973600    344.85281   -8718.2336    49.341155   -8767.5747   -7226.2329 
  973800    288.09837   -8731.1051    41.220793   -8772.3259    4068.7452 
  974000     323.4488   -8714.4321    46.278693   -8760.7108   -28634.527 
  974200    304.86309   -8716.6978     43.61947   -8760.3173   -10372.329 
  974400     267.9899   -8728.3202    38.343695   -8766.6639   -7174.5158 
  974600    229.74699   -8739.8842    32.871943   -8772.7561   -3172.2922 
  974800     304.8942   -8722.5491    43.623922    -8766.173    22151.001 
  975000    291.23977   -8715.0495     41.67026   -8756.7198   -15800.212 
  975200    310.78615   -8722.2639    44.466936   -8766.7308   -16396.709 
  975400    271.74454   -8726.6496    38.880904   -8765.5305    9261.7926 
  975600    359.21467   -8717.3105    51.396034   -8768.7066    11123.433 
  975800    269.24742   -8718.5562     38.52362   -8757.0798     3812.421 
  976000    301.38402   -8718.0029    43.121689   -8761.1246    33977.116 
  976200    256.10441   -8721.7103    36.643132   -8758.3534   -24246.184 
  976400    282.17099   -8726.3941     40.37271   -8766.7668    4518.2846 
  976600    351.27447   -8714.5247    50.259958   -8764.7847    37754.089 
  976800    281.00811   -8717.9804    40.206326   -8758.1867    -10687.65 
  977000    309.18498   -8720.5868    44.237842   -8764.8246    3976.6637 
  977200    345.25965   -8715.8005    49.399365   -8765.1999   -16745.656 
  977400    382.45719   -8699.6231    54.721547   -8754.3446   -2785.8557 
  977600    273.59158   -8721.8998    39.145178    -8761.045    4920.0826 
  977800    305.83753    -8722.838    43.758892   -8766.5969   -6403.8649 
  978000    331.49844   -8707.0607    47.430426   -8754.4912   -21550.047 
  978200     341.3226   -8722.4664    48.836057   -8771.3025   -25519.183 
  978400    305.07583   -8723.7299    43.649909   -8767.3798   -5217.4973 
  978600    351.30337   -8712.4559    50.264093   -8762.7199    -22965.75 
  978800    261.83237   -8732.2012    37.462683   -8769.6639   -14925.231 
  979000    259.62948   -8722.4556    37.147496   -8759.6031    27426.026 
  979200    338.84204    -8716.081    48.481141   -8764.5621    5544.1649 
  979400    301.40589   -8721.3418    43.124818   -8764.4666   -23799.634 
  979600    332.99918   -8719.2057    47.645151   -8766.8508   -36109.548 
  979800    214.84241   -8731.5036    30.739412    -8762.243   -24813.294 
  980000    321.01778   -8719.9251    45.930864    -8765.856   -9320.6958 
  980200    299.92746   -8717.7334    42.913286   -8760.6467   -3716.3889 
  980400    301.38272   -8718.6729    43.121502   -8761.7944   -2439.8157 
  980600    239.73853   -8728.6233    34.301521   -8762.9248    1146.3406 
  980800    341.70634   -8712.5843    48.890961   -8761.4753    1275.3176 
  981000    351.70223   -8715.6913    50.321161   -8766.0124    13707.934 
  981200    301.08037   -8722.2839    43.078242   -8765.3622    28527.649 
  981400    361.89257   -8713.0912    51.779184   -8764.8704    4628.8043 
  981600    308.17963   -8701.2482    44.093996   -8745.3422   -21262.763 
  981800    289.76247   -8722.9995     41.45889   -8764.4584   -13316.239 
  982000    252.67602   -8731.1075    36.152603   -8767.2601    7439.3005 
  982200    274.60725   -8717.0471    39.290498   -8756.3376    9105.6722 
  982400    323.07155   -8718.1896    46.224716   -8764.4144   -5366.5911 
  982600    255.51166   -8733.1823    36.558323   -8769.7406    33903.249 
  982800    273.62912   -8719.8417    39.150549   -8758.9923   -7968.8599 
  983000    317.10778   -8716.6031    45.371427   -8761.9745    5865.1262 
  983200    299.69032   -8727.6852    42.879356   -8770.5646    62716.556 
  983400    322.72417   -8726.7954    46.175013   -8772.9704    9076.8932 
  983600    335.17894   -8710.0686    47.957028   -8758.0256    8286.3563 
  983800    271.37402   -8724.4248    38.827891   -8763.2527    13921.281 
  984000     268.2659   -8722.2352    38.383186   -8760.6184    10045.355 
  984200    285.67404   -8713.8152    40.873923   -8754.6892   -17866.658 
  984400     213.7557   -8732.2579    30.583927   -8762.8418     20510.26 
  984600    331.44578   -8723.1166    47.422892   -8770.5395    11557.704 
  984800    338.87225   -8710.6165    48.485463    -8759.102     37166.99 
  985000    279.02204   -8729.8963    39.922162   -8769.8185    22579.804 
  985200     310.2029   -8718.9841    44.383484   -8763.3675   -5070.1659 
  985400    370.62527   -8709.7271    53.028649   -8762.7558   -16363.347 
  985600    304.12176   -8718.2368    43.513402   -8761.7502   -7662.7909 
  985800     325.9857   -8713.8785    46.641669   -8760.5201    7881.8643 
  986000    240.35831   -8730.6952    34.390198   -8765.0854   -16599.281 
  986200    304.80209   -8720.6368    43.610742   -8764.2476   -42262.529 
  986400    296.44133   -8718.3644    42.414494   -8760.7789   -16451.008 
  986600     304.7632   -8722.3633    43.605178   -8765.9685    3011.0038 
  986800    313.03423    -8709.052    44.788588   -8753.8406   -2393.8952 
  987000    347.87268   -8712.6419    49.773235   -8762.4151    283.90358 
  987200    306.66801   -8722.6304    43.877716   -8766.5081    21142.068 
  987400    328.17211   -8713.5548    46.954498   -8760.5093    23884.837 
  987600    327.18074   -8711.3083    46.812654   -8758.1209   -16919.281 
  987800    283.40401   -8719.7802     40.54913   -8760.3293     23650.28 
  988000    292.40928   -8713.4857    41.837594   -8755.3232     28506.02 
  988200    333.18017   -8712.7791    47.671046   -8760.4501    31240.162 
  988400     278.8363   -8728.0374    39.895586   -8767.9329    16545.842 
  988600    316.82782   -8714.3159     45.33137   -8759.6472    -15458.17 
  988800     285.9602   -8718.3651    40.914866   -8759.2799     24155.78 
  989000    304.69753   -8727.2667    43.595782   -8770.8624   -6833.9499 
  989200    329.71154   -8709.9969    47.174759   -8757.1717   -28202.226 
  989400    311.14148   -8718.4092    44.517776    -8762.927   -6242.5212 
  989600    306.98535   -8722.5025     43.92312   -8766.4257   -7627.0611 
  989800     287.6307   -8720.3485    41.153879   -8761.5024    12919.979 
  990000    345.83666   -8702.1459    49.481922   -8751.6278   -151.05925 
  990200    316.33373    -8722.983    45.260677   -8768.2437     64463.75 
  990400     282.9502   -8719.0484    40.484198   -8759.5326   -14740.134 
  990600    352.80888   -8705.6949      50.4795   -8756.1744    3826.1683 
  990800    272.77847   -8725.3572    39.028839    -8764.386    -6356.892 
  991000    330.40319   -8718.2174    47.273719   -8765.4912    -20431.51 
  991200    396.52774   -8706.0347    56.734747   -8762.7695    13359.296 
  991400     271.8665   -8723.0195    38.898355   -8761.9179    18134.429 
  991600    253.17508   -8726.1331    36.224007   -8762.3571   -2185.2418 
  991800    325.55176   -8710.1651    46.579582   -8756.7447    8988.8573 
  992000    270.30942   -8719.6048    38.675569   -8758.2804   -13647.436 
  992200    338.43449   -8721.6057    48.422828   -8770.0286    8836.0379 
  992400    289.27331    -8717.333    41.388902   -8758.7219    30688.077 
  992600    321.27956   -8711.0731     45.96832   -8757.0414   -18883.631 
  992800    221.41936   -8728.2347    31.680435   -8759.9151    14857.885 
  993000     263.1272   -8718.1874    37.647946   -8755.8354   -16429.046 
  993200     399.9792   -8708.5781    57.228577   -8765.8067    14615.553 
  993400    276.54272   -8721.7647    39.567423   -8761.3321    4414.1001 
  993600    240.49521   -8724.2146    34.409786   -8758.6244   -16378.149 
  993800    365.46378   -8705.6734    52.290149   -8757.9636    8636.4195 
  994000    257.54403   -8729.3087    36.849112   -8766.1578   -2827.0879 
  994200     308.8375   -8721.5005    44.188125   -8765.6886   -29087.198 
  994400    327.85983   -8714.0607    46.909818   -8760.9705    36797.419 
  994600    272.90451   -8731.4049    39.046872   -8770.4518   -3709.3395 
  994800    259.81443    -8722.644    37.173959   -8759.8179   -6958.2892 
  995000    330.51377   -8719.6567    47.289541   -8766.9462     21118.04 
  995200    306.49999   -8718.9729    43.853676   -8762.8265   -35219.844 
  995400    301.88928   -8716.7765    43.193981   -8759.9704   -777.11458 
  995600    281.54056   -8729.5377    40.282508   -8769.8203   -15736.107 
  995800    343.83276   -8708.7374    49.195207   -8757.9326   -34078.627 
  996000    290.21368   -8719.5103    41.523449   -8761.0337   -41764.577 
  996200    300.34885   -8722.4594    42.973578    -8765.433   -25134.993 
  996400    229.37863   -8728.4823    32.819237   -8761.3015   -12029.522 
  996600    360.28527   -8715.0719    51.549213   -8766.6211   -31438.084 
  996800    256.34458   -8714.0731    36.677496   -8750.7506     58499.06 
  997000    234.99469   -8732.7021    33.622778   -8766.3249   -15472.686 
  997200    349.39417   -8720.1099    49.990927   -8770.1008   -13187.611 
  997400    297.98826   -8716.4812    42.635827    -8759.117   -26398.364 
  997600     280.4178   -8721.4499    40.121865   -8761.5717    9509.5709 
  997800     359.4374   -8716.0385    51.427902   -8767.4664   -30284.181 
  998000    302.80868   -8716.8646    43.325527   -8760.1902    -987.7935 
  998200    284.99288   -8722.1645    40.776463    -8762.941    21396.342 
  998400    355.05822   -8717.8077    50.801333   -8768.6091   -12756.948 
  998600    241.82027   -8733.1145    34.599374   -8767.7139     12597.13 
  998800    322.28047   -8718.7065    46.111529    -8764.818    36290.129 
  999000    345.34038   -8714.9198    49.410916   -8764.3307   -8614.7556 
  999200    221.42365   -8728.8629    31.681048   -8760.5439   -13415.733 
  999400    282.82722   -8728.6955    40.466603   -8769.1621   -13834.622 
  999600    330.76559   -8719.6594    47.325571   -8766.9849    11909.429 
  999800    260.72348    -8729.571    37.304024    -8766.875   -3235.7395 
 1000000    302.21215   -8726.4987    43.240176   -8769.7389    17443.171 
Loop time of 2269.91 on 8 procs for 1000000 steps with 49 atoms

Performance: 9.516 ns/day, 2.522 hours/ns, 440.546 timesteps/s
99.4% CPU use with 8 MPI tasks x no OpenMP threads

MPI task timing breakdown:
Section |  min time  |  avg time  |  max time  |%varavg| %total
---------------------------------------------------------------
Pair    | 1933.1     | 1955.4     | 1969.5     |  27.4 | 86.15
Neigh   | 0.01775    | 0.017949   | 0.018281   |   0.1 |  0.00
Comm    | 22.26      | 35.967     | 58.072     | 199.9 |  1.58
Output  | 0.088183   | 0.09552    | 0.14295    |   5.8 |  0.00
Modify  | 276.47     | 276.79     | 277.05     |   1.0 | 12.19
Other   |            | 1.596      |            |       |  0.07

Nlocal:    6.125 ave 7 max 6 min
Histogram: 7 0 0 0 0 0 0 0 0 1
Nghost:    565 ave 569 max 560 min
Histogram: 2 0 0 0 2 0 1 0 1 2
Neighs:    771.25 ave 874 max 749 min
Histogram: 6 1 0 0 0 0 0 0 0 1

Total # of neighbors = 6170
Ave neighs/atom = 125.918
Neighbor list builds = 28
Dangerous builds = 0

unfix 1
unfix output
undump 1

Please see the log.cite file for references relevant to this simulation

Total wall time: 0:38:00
