ITEM: TIMESTEP
0
ITEM: NUMBER OF ATOMS
49
ITEM: BOX BOUNDS pp pp pp
0.0000000000000000e+00 1.1000000000000000e+01
0.0000000000000000e+00 1.1002000000000001e+01
0.0000000000000000e+00 1.1000000000000000e+01
ITEM: ATOMS id type x y z 
10 1 4.603 4.603 4.603 
11 1 3.085 3.085 3.085 
12 1 3.796 3.796 3.796 
46 1 0.726 0.725 0.725 
47 1 2.26 2.259 2.26 
48 1 1.551 1.55 1.55 
49 2 0.539 0.602 2.065 
19 1 4.546 4.545 6.226 
20 1 3.013 3.013 7.764 
21 1 3.721 3.721 7.053 
31 1 0.668 0.667 10.103 
32 1 2.187 2.187 8.589 
33 1 1.476 1.475 9.298 
16 1 4.546 6.225 4.546 
17 1 3.013 7.765 3.013 
18 1 3.721 7.053 3.722 
25 1 0.668 10.103 0.668 
26 1 2.188 8.589 2.188 
27 1 1.476 9.298 1.476 
4 1 4.608 6.169 6.169 
5 1 3.086 7.684 7.684 
6 1 3.799 6.974 6.974 
37 1 0.729 10.046 10.046 
38 1 2.259 8.509 8.508 
39 1 1.552 9.219 9.219 
13 1 6.225 4.546 4.546 
14 1 7.764 3.013 3.013 
15 1 7.053 3.721 3.722 
28 1 10.102 0.667 0.668 
29 1 8.589 2.187 2.188 
30 1 9.298 1.475 1.476 
1 1 6.168 4.608 6.169 
2 1 7.684 3.086 7.684 
3 1 6.974 3.799 6.974 
40 1 10.045 0.728 10.046 
41 1 8.508 2.259 8.508 
42 1 9.218 1.551 9.218 
7 1 6.169 6.169 4.608 
8 1 7.684 7.684 3.086 
9 1 6.974 6.974 3.799 
43 1 10.046 10.047 0.729 
44 1 8.508 8.509 2.259 
45 1 9.219 9.219 1.552 
22 1 6.229 6.229 6.229 
23 1 7.764 7.765 7.765 
24 1 7.055 7.056 7.055 
34 1 10.108 10.108 10.107 
35 1 8.59 8.59 8.59 
36 1 9.301 9.301 9.3 
ITEM: TIMESTEP
10
ITEM: NUMBER OF ATOMS
49
ITEM: BOX BOUNDS pp pp pp
0.0000000000000000e+00 1.1000000000000000e+01
0.0000000000000000e+00 1.1002000000000001e+01
0.0000000000000000e+00 1.1000000000000000e+01
ITEM: ATOMS id type x y z 
10 1 4.5956 4.5965 4.59586 
11 1 3.07612 3.08395 3.08025 
12 1 3.79654 3.79277 3.79258 
46 1 0.692815 0.707425 0.702095 
47 1 2.32662 2.32512 2.29719 
48 1 1.59584 1.5798 1.63697 
49 2 0.565113 0.618772 2.10571 
19 1 4.54527 4.54418 6.22702 
20 1 3.0124 3.01153 7.76466 
21 1 3.72207 3.7235 7.05227 
31 1 0.67619 0.672475 10.0443 
32 1 2.19848 2.19921 8.58229 
33 1 1.48232 1.47985 9.28192 
16 1 4.54519 6.22684 4.54541 
17 1 3.0125 7.76567 3.01271 
18 1 3.72152 7.05199 3.72229 
25 1 0.666305 10.0309 0.64872 
26 1 2.19582 8.58607 2.19605 
27 1 1.47787 9.284 1.47609 
4 1 4.60941 6.1661 6.16541 
5 1 3.08867 7.6825 7.68243 
6 1 3.79902 6.97152 6.9711 
37 1 0.732086 10.0388 10.0472 
38 1 2.26099 8.50762 8.50484 
39 1 1.55386 9.21642 9.22074 
13 1 6.22709 4.54586 4.5456 
14 1 7.76641 3.01198 3.01257 
15 1 7.0513 3.72063 3.72089 
28 1 10.027 0.663172 0.644314 
29 1 8.58686 2.1941 2.19557 
30 1 9.28157 1.47568 1.47161 
1 1 6.1647 4.60791 6.16488 
2 1 7.68115 3.08788 7.6818 
3 1 6.97277 3.80158 6.97123 
40 1 10.0359 0.732676 10.0503 
41 1 8.50646 2.26091 8.50438 
42 1 9.21471 1.55402 9.21963 
7 1 6.16553 6.1647 4.60897 
8 1 7.68282 7.68285 3.08786 
9 1 6.97228 6.9723 3.79875 
43 1 10.0486 10.0531 0.735384 
44 1 8.50624 8.50624 2.25973 
45 1 9.21735 9.21929 1.55716 
22 1 6.23021 6.22981 6.22908 
23 1 7.76618 7.76563 7.76535 
24 1 7.05346 7.05675 7.0564 
34 1 10.0975 10.0942 10.0964 
35 1 8.5883 8.58678 8.5872 
36 1 9.29804 9.30145 9.29985 
ITEM: TIMESTEP
20
ITEM: NUMBER OF ATOMS
49
ITEM: BOX BOUNDS pp pp pp
0.0000000000000000e+00 1.1000000000000000e+01
0.0000000000000000e+00 1.1002000000000001e+01
0.0000000000000000e+00 1.1000000000000000e+01
ITEM: ATOMS id type x y z 
10 1 4.59972 4.59766 4.59726 
11 1 3.10079 3.10725 3.09664 
12 1 3.81184 3.81554 3.81185 
46 1 0.667811 0.687697 0.701487 
47 1 2.34332 2.34095 2.28832 
48 1 1.60306 1.57843 1.66126 
49 2 0.569522 0.616464 2.11577 
19 1 4.54361 4.5442 6.23349 
20 1 3.01685 3.01791 7.76093 
21 1 3.72862 3.72689 7.04873 
31 1 0.675267 0.670235 10.046 
32 1 2.20692 2.20718 8.57635 
33 1 1.48653 1.48415 9.26884 
16 1 4.54411 6.23275 4.54437 
17 1 3.01555 7.76312 3.01617 
18 1 3.72569 7.0518 3.72628 
25 1 0.659992 10.0171 0.635298 
26 1 2.20075 8.58414 2.20308 
27 1 1.48003 9.26751 1.47266 
4 1 4.60798 6.16793 6.16532 
5 1 3.08779 7.68057 7.68007 
6 1 3.80403 6.97222 6.9712 
37 1 0.730718 10.0309 10.0435 
38 1 2.26576 8.50377 8.50273 
39 1 1.55585 9.21078 9.21447 
13 1 6.23304 4.54423 4.54359 
14 1 7.76394 3.01442 3.01557 
15 1 7.05226 3.72475 3.72505 
28 1 10.0102 0.658403 0.632164 
29 1 8.5847 2.19932 2.20131 
30 1 9.26182 1.47715 1.46674 
1 1 6.16852 4.60945 6.16539 
2 1 7.68169 3.08997 7.67982 
3 1 6.96852 3.8007 6.97003 
40 1 10.0267 0.731191 10.0444 
41 1 8.50297 2.26605 8.50115 
42 1 9.20773 1.55651 9.21538 
7 1 6.16685 6.16622 4.60817 
8 1 7.68101 7.68092 3.08838 
9 1 6.97079 6.97055 3.80114 
43 1 10.0386 10.0435 0.735948 
44 1 8.50413 8.50423 2.26423 
45 1 9.21399 9.21656 1.55761 
22 1 6.2306 6.23178 6.23091 
23 1 7.76374 7.76475 7.76456 
24 1 7.05363 7.05429 7.05363 
34 1 10.0919 10.0911 10.0933 
35 1 8.58297 8.58494 8.58415 
36 1 9.29853 9.29492 9.29632 
ITEM: TIMESTEP
30
ITEM: NUMBER OF ATOMS
49
ITEM: BOX BOUNDS pp pp pp
0.0000000000000000e+00 1.1000000000000000e+01
0.0000000000000000e+00 1.1002000000000001e+01
0.0000000000000000e+00 1.1000000000000000e+01
ITEM: ATOMS id type x y z 
10 1 4.61906 4.6171 4.61646 
11 1 3.11924 3.13108 3.09629 
12 1 3.82921 3.8326 3.82127 
46 1 0.649706 0.672423 0.725231 
47 1 2.36008 2.35202 2.27128 
48 1 1.6085 1.57261 1.68124 
49 2 0.567441 0.606213 2.13081 
19 1 4.5471 4.55012 6.24708 
20 1 3.01757 3.02177 7.76033 
21 1 3.73532 3.72833 7.0527 
31 1 0.676226 0.671661 10.0487 
32 1 2.21061 2.20928 8.56835 
33 1 1.49001 1.48929 9.2637 
16 1 4.54785 6.24958 4.54775 
17 1 3.01494 7.76825 3.01782 
18 1 3.72687 7.05769 3.72668 
25 1 0.650548 9.99599 0.61554 
26 1 2.20031 8.58434 2.20182 
27 1 1.47425 9.24689 1.46049 
4 1 4.6105 6.17583 6.1699 
5 1 3.08758 7.68203 7.6818 
6 1 3.80353 6.97469 6.9696 
37 1 0.721963 10.0174 10.0397 
38 1 2.26454 8.50683 8.50755 
39 1 1.55038 9.20458 9.21122 
13 1 6.2501 4.54871 4.54722 
14 1 7.7692 3.01595 3.01798 
15 1 7.05594 3.72595 3.72701 
28 1 9.98735 0.649961 0.611263 
29 1 8.58316 2.19875 2.19802 
30 1 9.23679 1.47086 1.45333 
1 1 6.17509 4.60998 6.16693 
2 1 7.68143 3.08737 7.68011 
3 1 6.97331 3.80507 6.97037 
40 1 10.0118 0.721019 10.039 
41 1 8.50545 2.26639 8.50412 
42 1 9.19988 1.55077 9.21345 
7 1 6.17121 6.17158 4.607 
8 1 7.68003 7.68339 3.08722 
9 1 6.97495 6.96811 3.80238 
43 1 10.0252 10.0299 0.723602 
44 1 8.50352 8.50268 2.27024 
45 1 9.20683 9.21198 1.55162 
22 1 6.2346 6.23609 6.23404 
23 1 7.76418 7.76611 7.76464 
24 1 7.05453 7.05356 7.05457 
34 1 10.0887 10.0879 10.088 
35 1 8.58037 8.58213 8.57999 
36 1 9.29409 9.2902 9.29563 
ITEM: TIMESTEP
40
ITEM: NUMBER OF ATOMS
49
ITEM: BOX BOUNDS pp pp pp
0.0000000000000000e+00 1.1000000000000000e+01
0.0000000000000000e+00 1.1002000000000001e+01
0.0000000000000000e+00 1.1000000000000000e+01
ITEM: ATOMS id type x y z 
10 1 4.62218 4.62121 4.62028 
11 1 3.12386 3.13516 3.09393 
12 1 3.83401 3.83976 3.82299 
46 1 0.648505 0.670584 0.728461 
47 1 2.36268 2.35373 2.26653 
48 1 1.60712 1.56811 1.68868 
49 2 0.569602 0.607114 2.13443 
19 1 4.5506 4.55199 6.24874 
20 1 3.01838 3.02058 7.76052 
21 1 3.73492 3.73088 7.05446 
31 1 0.678778 0.675485 10.0509 
32 1 2.20835 2.20784 8.56871 
33 1 1.48873 1.48701 9.26589 
16 1 4.55046 6.25176 4.54964 
17 1 3.01498 7.76948 3.0177 
18 1 3.72713 7.0607 3.72793 
25 1 0.649292 9.98985 0.615658 
26 1 2.19904 8.58344 2.2 
27 1 1.4712 9.24405 1.45596 
4 1 4.61031 6.17886 6.16981 
5 1 3.08756 7.68286 7.68192 
6 1 3.80365 6.97558 6.97068 
37 1 0.720566 10.017 10.0368 
38 1 2.26743 8.50262 8.50295 
39 1 1.54945 9.20427 9.21354 
13 1 6.25223 4.55055 4.54925 
14 1 7.77073 3.01504 3.01747 
15 1 7.06001 3.72607 3.72703 
28 1 9.97945 0.647625 0.610321 
29 1 8.57921 2.19729 2.19561 
30 1 9.23713 1.46942 1.45018 
1 1 6.17778 4.61046 6.16877 
2 1 7.68176 3.08827 7.68066 
3 1 6.97435 3.80453 6.96955 
40 1 10.0098 0.719389 10.0364 
41 1 8.50061 2.26887 8.50115 
42 1 9.20062 1.55023 9.21305 
7 1 6.17288 6.17259 4.60656 
8 1 7.68196 7.68261 3.08784 
9 1 6.97305 6.97042 3.80177 
43 1 10.0201 10.0258 0.721188 
44 1 8.50142 8.50219 2.27088 
45 1 9.20629 9.20951 1.55158 
22 1 6.23629 6.2369 6.2358 
23 1 7.76502 7.76594 7.76537 
24 1 7.05413 7.05501 7.05404 
34 1 10.0856 10.0834 10.0866 
35 1 8.57948 8.57959 8.57965 
36 1 9.29237 9.29139 9.29309 
ITEM: TIMESTEP
50
ITEM: NUMBER OF ATOMS
49
ITEM: BOX BOUNDS pp pp pp
0.0000000000000000e+00 1.1000000000000000e+01
0.0000000000000000e+00 1.1002000000000001e+01
0.0000000000000000e+00 1.1000000000000000e+01
ITEM: ATOMS id type x y z 
10 1 4.6225 4.62253 4.62231 
11 1 3.12701 3.13824 3.09175 
12 1 3.83673 3.84299 3.82098 
46 1 0.647514 0.668524 0.730216 
47 1 2.36464 2.35501 2.26535 
48 1 1.60821 1.5671 1.69266 
49 2 0.569071 0.606248 2.13592 
19 1 4.55331 4.55312 6.24921 
20 1 3.01942 3.01929 7.76026 
21 1 3.73372 3.73357 7.05612 
31 1 0.679215 0.676713 10.0552 
32 1 2.20727 2.20678 8.5684 
33 1 1.48853 1.48712 9.26773 
16 1 4.55182 6.25283 4.55103 
17 1 3.0148 7.77027 3.01752 
18 1 3.72775 7.06367 3.72889 
25 1 0.647665 9.98801 0.614177 
26 1 2.19763 8.58204 2.19769 
27 1 1.46944 9.24247 1.45392 
4 1 4.61038 6.1803 6.16996 
5 1 3.08757 7.6835 7.68233 
6 1 3.80385 6.97641 6.971 
37 1 0.72001 10.0165 10.0365 
38 1 2.26665 8.50214 8.50303 
39 1 1.54878 9.204 9.21377 
13 1 6.25317 4.55154 4.55023 
14 1 7.77093 3.01447 3.01704 
15 1 7.06339 3.72714 3.72802 
28 1 9.97757 0.64571 0.609114 
29 1 8.57766 2.1958 2.19357 
30 1 9.2355 1.46811 1.44743 
1 1 6.17951 4.61095 6.16919 
2 1 7.68279 3.08871 7.6809 
3 1 6.97427 3.80414 6.97004 
40 1 10.009 0.718533 10.0358 
41 1 8.49981 2.26804 8.5014 
42 1 9.20064 1.54958 9.21276 
7 1 6.17338 6.17243 4.60568 
8 1 7.68266 7.68195 3.08761 
9 1 6.97267 6.97248 3.80326 
43 1 10.0178 10.023 0.719051 
44 1 8.50085 8.50115 2.27066 
45 1 9.20482 9.20919 1.55128 
22 1 6.23706 6.23783 6.23679 
23 1 7.76511 7.76581 7.7654 
24 1 7.05389 7.05512 7.05378 
34 1 10.0845 10.0824 10.0851 
35 1 8.57872 8.57872 8.57903 
36 1 9.2918 9.29086 9.29207 
ITEM: TIMESTEP
60
ITEM: NUMBER OF ATOMS
49
ITEM: BOX BOUNDS pp pp pp
0.0000000000000000e+00 1.1000000000000000e+01
0.0000000000000000e+00 1.1002000000000001e+01
0.0000000000000000e+00 1.1000000000000000e+01
ITEM: ATOMS id type x y z 
10 1 4.62398 4.62495 4.62607 
11 1 3.13252 3.1441 3.08687 
12 1 3.84176 3.8482 3.81735 
46 1 0.646277 0.666288 0.733121 
47 1 2.36801 2.35673 2.2634 
48 1 1.60969 1.56498 1.69994 
49 2 0.567809 0.605004 2.13867 
19 1 4.55562 4.55586 6.25161 
20 1 3.01998 3.01965 7.76 
21 1 3.73435 3.73456 7.0579 
31 1 0.680508 0.679013 10.063 
32 1 2.20574 2.20525 8.56822 
33 1 1.48847 1.48692 9.27043 
16 1 4.55305 6.25607 4.55269 
17 1 3.01431 7.77196 3.01718 
18 1 3.72933 7.06854 3.73072 
25 1 0.644774 9.98499 0.611352 
26 1 2.19575 8.57875 2.19363 
27 1 1.46639 9.23917 1.45141 
4 1 4.61119 6.1823 6.17088 
5 1 3.08815 7.68469 7.68356 
6 1 3.80289 6.97779 6.97059 
37 1 0.718877 10.016 10.0355 
38 1 2.2651 8.50128 8.50355 
39 1 1.54778 9.20382 9.21379 
13 1 6.25587 4.55303 4.5518 
14 1 7.77138 3.014 3.01662 
15 1 7.06862 3.72932 3.73004 
28 1 9.97465 0.642386 0.606246 
29 1 8.57377 2.1945 2.18951 
30 1 9.23299 1.46428 1.4452 
1 1 6.1808 4.61093 6.16938 
2 1 7.68321 3.08858 7.68175 
3 1 6.97672 3.80518 6.97002 
40 1 10.0085 0.717452 10.0344 
41 1 8.49892 2.26718 8.50147 
42 1 9.19925 1.54779 9.21242 
7 1 6.17383 6.17324 4.60555 
8 1 7.68293 7.6831 3.08909 
9 1 6.97311 6.97127 3.80288 
43 1 10.0134 10.0191 0.715702 
44 1 8.49943 8.49997 2.27108 
45 1 9.20276 9.20698 1.54913 
22 1 6.23806 6.23907 6.23813 
23 1 7.765 7.7655 7.76514 
24 1 7.05371 7.0552 7.05373 
34 1 10.0833 10.0804 10.0824 
35 1 8.57758 8.5769 8.57843 
36 1 9.29088 9.2909 9.28944 
ITEM: TIMESTEP
70
ITEM: NUMBER OF ATOMS
49
ITEM: BOX BOUNDS pp pp pp
0.0000000000000000e+00 1.1000000000000000e+01
0.0000000000000000e+00 1.1002000000000001e+01
0.0000000000000000e+00 1.1000000000000000e+01
ITEM: ATOMS id type x y z 
10 1 4.62976 4.63336 4.63276 
11 1 3.14947 3.16102 3.07042 
12 1 3.85048 3.85903 3.81454 
46 1 0.643036 0.662144 0.740529 
47 1 2.37723 2.36135 2.25963 
48 1 1.6129 1.55915 1.71819 
49 2 0.565008 0.60149 2.14523 
19 1 4.56042 4.56176 6.25658 
20 1 3.02051 3.01976 7.76002 
21 1 3.73617 3.73717 7.06194 
31 1 0.683655 0.68442 10.0816 
32 1 2.20229 2.20091 8.56705 
33 1 1.48898 1.48889 9.27919 
16 1 4.55683 6.2655 4.55744 
17 1 3.01597 7.77699 3.01837 
18 1 3.73061 7.07685 3.73318 
25 1 0.636713 9.97761 0.606484 
26 1 2.19097 8.56956 2.18455 
27 1 1.45943 9.23046 1.4445 
4 1 4.6109 6.18629 6.17183 
5 1 3.08838 7.68726 7.68597 
6 1 3.8022 6.98175 6.97057 
37 1 0.716273 10.0158 10.0326 
38 1 2.26255 8.49922 8.50443 
39 1 1.54422 9.20268 9.21383 
13 1 6.26433 4.55733 4.55628 
14 1 7.77481 3.01473 3.01673 
15 1 7.07766 3.73166 3.73243 
28 1 9.96765 0.632885 0.600502 
29 1 8.56543 2.18876 2.17941 
30 1 9.22368 1.45752 1.43812 
1 1 6.18503 4.61076 6.16938 
2 1 7.68623 3.08981 7.68327 
3 1 6.9789 3.80494 6.97082 
40 1 10.0074 0.713948 10.0317 
41 1 8.49595 2.26385 8.50205 
42 1 9.19803 1.54454 9.21166 
7 1 6.1745 6.17291 4.60311 
8 1 7.68445 7.68343 3.09186 
9 1 6.9723 6.97216 3.804 
43 1 10.0032 10.0095 0.70653 
44 1 8.49683 8.49669 2.27101 
45 1 9.19612 9.20301 1.54461 
22 1 6.24035 6.24235 6.24143 
23 1 7.7656 7.76567 7.76571 
24 1 7.053 7.05484 7.05333 
34 1 10.0809 10.0778 10.0752 
35 1 8.57521 8.57322 8.57586 
36 1 9.28848 9.29032 9.28452 
ITEM: TIMESTEP
80
ITEM: NUMBER OF ATOMS
49
ITEM: BOX BOUNDS pp pp pp
0.0000000000000000e+00 1.1000000000000000e+01
0.0000000000000000e+00 1.1002000000000001e+01
0.0000000000000000e+00 1.1000000000000000e+01
ITEM: ATOMS id type x y z 
10 1 4.63006 4.63393 4.6346 
11 1 3.15164 3.16352 3.06862 
12 1 3.85337 3.86147 3.81224 
46 1 0.643012 0.662359 0.741428 
47 1 2.37863 2.36168 2.25975 
48 1 1.61359 1.55865 1.72086 
49 2 0.564485 0.601066 2.14609 
19 1 4.55991 4.56165 6.25667 
20 1 3.02011 3.01977 7.76061 
21 1 3.73609 3.73629 7.06177 
31 1 0.684927 0.685431 10.0841 
32 1 2.20225 2.20131 8.56767 
33 1 1.48966 1.48893 9.28013 
16 1 4.55653 6.26652 4.55766 
17 1 3.01587 7.77803 3.01824 
18 1 3.73055 7.07672 3.73274 
25 1 0.635115 9.9768 0.606295 
26 1 2.18958 8.56834 2.18376 
27 1 1.45932 9.22953 1.44276 
4 1 4.6102 6.18681 6.17176 
5 1 3.08745 7.68772 7.68509 
6 1 3.80374 6.98157 6.97277 
37 1 0.715837 10.0163 10.0329 
38 1 2.26179 8.49912 8.50468 
39 1 1.54425 9.20318 9.21398 
13 1 6.26601 4.55769 4.55704 
14 1 7.77653 3.01546 3.01699 
15 1 7.07588 3.73058 3.7313 
28 1 9.96678 0.631394 0.600973 
29 1 8.56394 2.18794 2.17861 
30 1 9.2228 1.45661 1.43686 
1 1 6.18499 4.61067 6.16934 
2 1 7.68609 3.08965 7.68319 
3 1 6.97931 3.80554 6.97099 
40 1 10.0079 0.714095 10.0312 
41 1 8.49575 2.26352 8.50177 
42 1 9.19773 1.54444 9.21194 
7 1 6.17462 6.17263 4.60342 
8 1 7.68437 7.68348 3.0923 
9 1 6.97242 6.97172 3.80421 
43 1 10.0022 10.0098 0.706228 
44 1 8.4955 8.49729 2.27109 
45 1 9.1967 9.20047 1.54333 
22 1 6.23994 6.24209 6.24141 
23 1 7.7652 7.76536 7.76512 
24 1 7.05266 7.05417 7.0536 
34 1 10.0815 10.079 10.0729 
35 1 8.57488 8.57425 8.57491 
36 1 9.28928 9.28846 9.28516 
ITEM: TIMESTEP
90
ITEM: NUMBER OF ATOMS
49
ITEM: BOX BOUNDS pp pp pp
0.0000000000000000e+00 1.1000000000000000e+01
0.0000000000000000e+00 1.1002000000000001e+01
0.0000000000000000e+00 1.1000000000000000e+01
ITEM: ATOMS id type x y z 
10 1 4.63032 4.63425 4.63492 
11 1 3.15256 3.16444 3.0678 
12 1 3.8541 3.86221 3.81176 
46 1 0.643002 0.662448 0.741769 
47 1 2.37912 2.36182 2.25983 
48 1 1.61382 1.55843 1.72176 
49 2 0.564296 0.600935 2.14637 
19 1 4.55984 4.56144 6.25673 
20 1 3.02015 3.0196 7.76077 
21 1 3.73576 3.73633 7.06172 
31 1 0.685329 0.685795 10.085 
32 1 2.20234 2.20125 8.56788 
33 1 1.48965 1.48927 9.28061 
16 1 4.55645 6.26676 4.55783 
17 1 3.01582 7.77817 3.01826 
18 1 3.73063 7.07692 3.73253 
25 1 0.634638 9.97644 0.606242 
26 1 2.18924 8.56779 2.18331 
27 1 1.45909 9.2294 1.44258 
4 1 4.61007 6.18692 6.17183 
5 1 3.08733 7.68777 7.6851 
6 1 3.80391 6.98169 6.97299 
37 1 0.715802 10.0164 10.0328 
38 1 2.26166 8.49903 8.50467 
39 1 1.54421 9.20328 9.21393 
13 1 6.26619 4.55765 4.55715 
14 1 7.7766 3.01546 3.01689 
15 1 7.07603 3.73069 3.73128 
28 1 9.96639 0.630968 0.600726 
29 1 8.56339 2.18772 2.17812 
30 1 9.22269 1.45618 1.43686 
1 1 6.18501 4.61061 6.16934 
2 1 7.68604 3.08964 7.6833 
3 1 6.97951 3.80557 6.97089 
40 1 10.008 0.714141 10.0313 
41 1 8.49573 2.26339 8.50189 
42 1 9.19772 1.54427 9.2118 
7 1 6.17446 6.17247 4.60333 
8 1 7.68419 7.68353 3.09235 
9 1 6.97266 6.97156 3.80446 
43 1 10.0022 10.0095 0.706061 
44 1 8.49544 8.49698 2.27097 
45 1 9.19623 9.2005 1.54312 
22 1 6.23972 6.24205 6.24152 
23 1 7.76506 7.76537 7.76509 
24 1 7.05273 7.05396 7.05356 
34 1 10.0815 10.0794 10.0722 
35 1 8.57481 8.57437 8.57476 
36 1 9.28949 9.28821 9.28502 
ITEM: TIMESTEP
100
ITEM: NUMBER OF ATOMS
49
ITEM: BOX BOUNDS pp pp pp
0.0000000000000000e+00 1.1000000000000000e+01
0.0000000000000000e+00 1.1002000000000001e+01
0.0000000000000000e+00 1.1000000000000000e+01
ITEM: ATOMS id type x y z 
10 1 4.63167 4.6365 4.6366 
11 1 3.15841 3.17014 3.06203 
12 1 3.85765 3.86613 3.80977 
46 1 0.643046 0.662904 0.743915 
47 1 2.38212 2.36268 2.26005 
48 1 1.61519 1.55696 1.72738 
49 2 0.563175 0.600227 2.14821 
19 1 4.55911 4.56093 6.25679 
20 1 3.0199 3.01917 7.76107 
21 1 3.73524 3.73606 7.06193 
31 1 0.68758 0.688295 10.0905 
32 1 2.2025 2.20146 8.56901 
33 1 1.4908 1.49068 9.28394 
16 1 4.55646 6.26851 4.55865 
17 1 3.01587 7.77885 3.01772 
18 1 3.73047 7.07798 3.73247 
25 1 0.63181 9.97489 0.605814 
26 1 2.18752 8.56521 2.18079 
27 1 1.45691 9.22733 1.44096 
4 1 4.60976 6.18712 6.17245 
5 1 3.08721 7.68816 7.68568 
6 1 3.80371 6.98206 6.97353 
37 1 0.715584 10.0171 10.0329 
38 1 2.26086 8.49905 8.50465 
39 1 1.54356 9.20345 9.21394 
13 1 6.26783 4.55768 4.55755 
14 1 7.77707 3.01558 3.01579 
15 1 7.07719 3.73052 3.73117 
28 1 9.96457 0.627909 0.600336 
29 1 8.56076 2.18594 2.17578 
30 1 9.22068 1.45403 1.43546 
1 1 6.185 4.61019 6.16948 
2 1 7.68628 3.0896 7.68351 
3 1 6.9797 3.80547 6.97105 
40 1 10.0086 0.714086 10.0311 
41 1 8.49538 2.26269 8.50191 
42 1 9.19762 1.54377 9.2118 
7 1 6.17398 6.17169 4.60317 
8 1 7.68397 7.68346 3.09324 
9 1 6.97249 6.97109 3.80496 
43 1 10.0011 10.0084 0.705 
44 1 8.49424 8.496 2.27006 
45 1 9.19498 9.19918 1.54206 
22 1 6.23875 6.24156 6.24231 
23 1 7.76478 7.76512 7.76484 
24 1 7.05228 7.0535 7.05369 
34 1 10.0828 10.0809 10.0687 
35 1 8.57473 8.57401 8.5744 
36 1 9.29017 9.28887 9.28287 
ITEM: TIMESTEP
110
ITEM: NUMBER OF ATOMS
49
ITEM: BOX BOUNDS pp pp pp
0.0000000000000000e+00 1.1000000000000000e+01
0.0000000000000000e+00 1.1002000000000001e+01
0.0000000000000000e+00 1.1000000000000000e+01
ITEM: ATOMS id type x y z 
10 1 4.63325 4.63867 4.63734 
11 1 3.16383 3.17531 3.05625 
12 1 3.86067 3.8697 3.80756 
46 1 0.643205 0.663241 0.74604 
47 1 2.38515 2.36359 2.26005 
48 1 1.61648 1.55526 1.7327 
49 2 0.562154 0.599677 2.14996 
19 1 4.55874 4.56098 6.25732 
20 1 3.01953 3.0191 7.76182 
21 1 3.7349 3.73514 7.06108 
31 1 0.689599 0.690803 10.0962 
32 1 2.20243 2.2017 8.57021 
33 1 1.4925 1.4921 9.28812 
16 1 4.55662 6.27001 4.55922 
17 1 3.01569 7.77865 3.01648 
18 1 3.73036 7.07989 3.73303 
25 1 0.628993 9.97387 0.605391 
26 1 2.18608 8.56319 2.17857 
27 1 1.45425 9.22463 1.43936 
4 1 4.60949 6.18743 6.17312 
5 1 3.08728 7.68852 7.68629 
6 1 3.80312 6.9822 6.97368 
37 1 0.715521 10.0175 10.0332 
38 1 2.26032 8.49909 8.50495 
39 1 1.54261 9.20381 9.21369 
13 1 6.26917 4.55774 4.55846 
14 1 7.77671 3.01514 3.01466 
15 1 7.07877 3.73132 3.73115 
28 1 9.96224 0.624205 0.600023 
29 1 8.55761 2.18359 2.1734 
30 1 9.22022 1.45292 1.43424 
1 1 6.18501 4.60956 6.16908 
2 1 7.68641 3.08947 7.68357 
3 1 6.97967 3.80543 6.97146 
40 1 10.0089 0.713939 10.0309 
41 1 8.49534 2.26207 8.50164 
42 1 9.19706 1.54353 9.21217 
7 1 6.17357 6.17092 4.60308 
8 1 7.68368 7.68348 3.09414 
9 1 6.97208 6.9701 3.80491 
43 1 10.0004 10.0074 0.704435 
44 1 8.49305 8.4948 2.26951 
45 1 9.19387 9.19838 1.54088 
22 1 6.23834 6.24065 6.24363 
23 1 7.7648 7.76425 7.76475 
24 1 7.05129 7.05417 7.05398 
34 1 10.0847 10.0824 10.0648 
35 1 8.57518 8.57365 8.57354 
36 1 9.29015 9.28992 9.28109 
ITEM: TIMESTEP
120
ITEM: NUMBER OF ATOMS
49
ITEM: BOX BOUNDS pp pp pp
0.0000000000000000e+00 1.1000000000000000e+01
0.0000000000000000e+00 1.1002000000000001e+01
0.0000000000000000e+00 1.1000000000000000e+01
ITEM: ATOMS id type x y z 
10 1 4.63384 4.63995 4.63821 
11 1 3.16719 3.17851 3.05261 
12 1 3.86312 3.87246 3.80531 
46 1 0.643369 0.663581 0.74724 
47 1 2.38699 2.36394 2.25979 
48 1 1.61763 1.55427 1.73643 
49 2 0.561504 0.599336 2.15137 
19 1 4.55838 4.56059 6.25686 
20 1 3.01933 3.01864 7.76123 
21 1 3.73483 3.73556 7.06203 
31 1 0.691379 0.692828 10.1008 
32 1 2.20292 2.20204 8.57183 
33 1 1.49285 1.49298 9.29 
16 1 4.55672 6.27163 4.56012 
17 1 3.01547 7.77909 3.01613 
18 1 3.73029 7.08003 3.73233 
25 1 0.627004 9.97262 0.605116 
26 1 2.18482 8.5612 2.17677 
27 1 1.453 9.2239 1.43876 
4 1 4.60927 6.18739 6.17343 
5 1 3.08703 7.68877 7.68645 
6 1 3.80318 6.98228 6.97431 
37 1 0.715074 10.0177 10.0331 
38 1 2.25962 8.4991 8.50479 
39 1 1.54287 9.20388 9.214 
13 1 6.27093 4.55816 4.55905 
14 1 7.77701 3.01535 3.01411 
15 1 7.07869 3.73053 3.73039 
28 1 9.96213 0.622907 0.5998 
29 1 8.55712 2.18326 2.17198 
30 1 9.21688 1.44983 1.43305 
1 1 6.18478 4.60944 6.16947 
2 1 7.68649 3.08954 7.68388 
3 1 6.97971 3.80496 6.97123 
40 1 10.0088 0.713727 10.0312 
41 1 8.49488 2.26176 8.50187 
42 1 9.19757 1.54318 9.21174 
7 1 6.17336 6.17045 4.60302 
8 1 7.68341 7.6831 3.09443 
9 1 6.9718 6.97004 3.80535 
43 1 9.99947 10.0067 0.703982 
44 1 8.49222 8.49407 2.26872 
45 1 9.19311 9.19765 1.54101 
22 1 6.23745 6.24078 6.24425 
23 1 7.76447 7.76471 7.76463 
24 1 7.0513 7.05275 7.05449 
34 1 10.0855 10.0839 10.062 
35 1 8.57503 8.57375 8.57317 
36 1 9.29124 9.29014 9.27927 
ITEM: TIMESTEP
130
ITEM: NUMBER OF ATOMS
49
ITEM: BOX BOUNDS pp pp pp
0.0000000000000000e+00 1.1000000000000000e+01
0.0000000000000000e+00 1.1002000000000001e+01
0.0000000000000000e+00 1.1000000000000000e+01
ITEM: ATOMS id type x y z 
10 1 4.63388 4.6403 4.63831 
11 1 3.16772 3.17919 3.0519 
12 1 3.86367 3.87271 3.80497 
46 1 0.643413 0.663668 0.747534 
47 1 2.38734 2.36401 2.25974 
48 1 1.61779 1.55402 1.73711 
49 2 0.561468 0.599346 2.15157 
19 1 4.55836 4.56062 6.25685 
20 1 3.01938 3.01872 7.76122 
21 1 3.73476 3.73543 7.06194 
31 1 0.691713 0.693187 10.1015 
32 1 2.203 2.20209 8.57204 
33 1 1.49302 1.49325 9.29056 
16 1 4.55674 6.27189 4.56024 
17 1 3.01543 7.7791 3.01603 
18 1 3.73026 7.08007 3.73223 
25 1 0.626565 9.97235 0.605123 
26 1 2.18455 8.56086 2.17652 
27 1 1.45287 9.22377 1.43854 
4 1 4.6092 6.18733 6.17346 
5 1 3.08694 7.68881 7.68643 
6 1 3.80326 6.9823 6.97452 
37 1 0.715022 10.0177 10.0331 
38 1 2.2596 8.49911 8.50474 
39 1 1.54277 9.20388 9.21408 
13 1 6.27113 4.55816 4.55914 
14 1 7.77699 3.01524 3.01392 
15 1 7.07883 3.73059 3.73031 
28 1 9.96174 0.622423 0.599735 
29 1 8.55668 2.18293 2.17164 
30 1 9.21693 1.44968 1.43297 
1 1 6.18469 4.60942 6.16956 
2 1 7.68648 3.08955 7.68392 
3 1 6.97968 3.80486 6.9712 
40 1 10.0088 0.713668 10.0312 
41 1 8.4949 2.26166 8.50189 
42 1 9.19753 1.54319 9.21175 
7 1 6.17334 6.17037 4.60302 
8 1 7.68338 7.68301 3.09443 
9 1 6.97172 6.97007 3.80543 
43 1 9.99927 10.0067 0.703956 
44 1 8.49207 8.49397 2.26862 
45 1 9.19299 9.1975 1.54096 
22 1 6.23737 6.24066 6.24445 
23 1 7.76449 7.76463 7.76466 
24 1 7.05114 7.05276 7.05452 
34 1 10.0856 10.0842 10.0614 
35 1 8.57501 8.57381 8.57307 
36 1 9.29148 9.29019 9.27893 
ITEM: TIMESTEP
137
ITEM: NUMBER OF ATOMS
49
ITEM: BOX BOUNDS pp pp pp
0.0000000000000000e+00 1.1000000000000000e+01
0.0000000000000000e+00 1.1002000000000001e+01
0.0000000000000000e+00 1.1000000000000000e+01
ITEM: ATOMS id type x y z 
10 1 4.63388 4.6403 4.63832 
11 1 3.16774 3.1792 3.05189 
12 1 3.86368 3.87275 3.80494 
46 1 0.643414 0.663671 0.747541 
47 1 2.38735 2.36401 2.25973 
48 1 1.61779 1.55401 1.73713 
49 2 0.561466 0.599345 2.15158 
19 1 4.55836 4.56061 6.25684 
20 1 3.01938 3.01871 7.76122 
21 1 3.73475 3.73544 7.06194 
31 1 0.691721 0.693199 10.1015 
32 1 2.203 2.20209 8.57204 
33 1 1.49303 1.49325 9.29058 
16 1 4.55674 6.2719 4.56025 
17 1 3.01542 7.7791 3.01603 
18 1 3.73027 7.08007 3.73222 
25 1 0.626557 9.97235 0.605125 
26 1 2.18455 8.56086 2.17651 
27 1 1.45286 9.22375 1.43853 
4 1 4.60921 6.18734 6.17347 
5 1 3.08695 7.68881 7.68643 
6 1 3.80324 6.98229 6.97451 
37 1 0.715024 10.0177 10.0331 
38 1 2.2596 8.49911 8.50475 
39 1 1.54276 9.20389 9.21406 
13 1 6.27114 4.55816 4.55914 
14 1 7.77698 3.01524 3.01391 
15 1 7.07883 3.73058 3.73032 
28 1 9.96174 0.622421 0.599729 
29 1 8.55668 2.18294 2.17163 
30 1 9.21691 1.44965 1.43298 
1 1 6.18469 4.60941 6.16955 
2 1 7.68648 3.08955 7.68392 
3 1 6.97968 3.80487 6.97121 
40 1 10.0088 0.713669 10.0312 
41 1 8.49489 2.26166 8.5019 
42 1 9.19754 1.54318 9.21173 
7 1 6.17335 6.17036 4.60302 
8 1 7.68339 7.68299 3.09443 
9 1 6.9717 6.97009 3.80544 
43 1 9.99926 10.0067 0.703956 
44 1 8.49206 8.49397 2.26862 
45 1 9.193 9.19748 1.54096 
22 1 6.23737 6.24066 6.24445 
23 1 7.76449 7.76463 7.76466 
24 1 7.05114 7.05275 7.05454 
34 1 10.0856 10.0843 10.0614 
35 1 8.57502 8.57382 8.57305 
36 1 9.29147 9.29018 9.27894 
ITEM: TIMESTEP
140
ITEM: NUMBER OF ATOMS
49
ITEM: BOX BOUNDS pp pp pp
0.0000000000000000e+00 1.1000000000000000e+01
0.0000000000000000e+00 1.1002000000000001e+01
0.0000000000000000e+00 1.1000000000000000e+01
ITEM: ATOMS id type x y z 
10 1 4.63388 4.6403 4.63832 
11 1 3.16774 3.17921 3.05189 
12 1 3.86369 3.87275 3.80493 
46 1 0.643415 0.663672 0.747543 
47 1 2.38736 2.36402 2.25973 
48 1 1.61779 1.55401 1.73713 
49 2 0.561465 0.599345 2.15158 
19 1 4.55836 4.56061 6.25684 
20 1 3.01938 3.01871 7.76123 
21 1 3.73475 3.73544 7.06194 
31 1 0.691722 0.693204 10.1016 
32 1 2.203 2.2021 8.57205 
33 1 1.49303 1.49325 9.29058 
16 1 4.55673 6.2719 4.56025 
17 1 3.01542 7.7791 3.01603 
18 1 3.73027 7.08007 3.73222 
25 1 0.626554 9.97235 0.605127 
26 1 2.18454 8.56086 2.17651 
27 1 1.45286 9.22374 1.43853 
4 1 4.6092 6.18734 6.17347 
5 1 3.08694 7.68881 7.68643 
6 1 3.80324 6.98229 6.97451 
37 1 0.715024 10.0177 10.0331 
38 1 2.2596 8.49911 8.50475 
39 1 1.54276 9.20389 9.21406 
13 1 6.27114 4.55816 4.55914 
14 1 7.77698 3.01524 3.01391 
15 1 7.07883 3.73058 3.73032 
28 1 9.96173 0.622418 0.599727 
29 1 8.55668 2.18293 2.17162 
30 1 9.21691 1.44965 1.43298 
1 1 6.18469 4.60941 6.16956 
2 1 7.68648 3.08955 7.68393 
3 1 6.97968 3.80486 6.9712 
40 1 10.0088 0.71367 10.0312 
41 1 8.49489 2.26166 8.5019 
42 1 9.19755 1.54318 9.21173 
7 1 6.17335 6.17036 4.60302 
8 1 7.68339 7.683 3.09443 
9 1 6.9717 6.97008 3.80543 
43 1 9.99926 10.0067 0.703956 
44 1 8.49206 8.49397 2.26862 
45 1 9.193 9.19748 1.54096 
22 1 6.23736 6.24066 6.24445 
23 1 7.76449 7.76463 7.76466 
24 1 7.05114 7.05275 7.05454 
34 1 10.0856 10.0843 10.0614 
35 1 8.57502 8.57382 8.57305 
36 1 9.29147 9.29018 9.27894 
ITEM: TIMESTEP
144
ITEM: NUMBER OF ATOMS
49
ITEM: BOX BOUNDS pp pp pp
0.0000000000000000e+00 1.1000000000000000e+01
0.0000000000000000e+00 1.1002000000000001e+01
0.0000000000000000e+00 1.1000000000000000e+01
ITEM: ATOMS id type x y z 
10 1 4.63389 4.6403 4.63832 
11 1 3.16774 3.17921 3.05188 
12 1 3.86369 3.87275 3.80493 
46 1 0.643415 0.663672 0.747544 
47 1 2.38736 2.36402 2.25973 
48 1 1.61779 1.55401 1.73714 
49 2 0.561464 0.599345 2.15158 
19 1 4.55836 4.56061 6.25684 
20 1 3.01938 3.01871 7.76123 
21 1 3.73475 3.73544 7.06194 
31 1 0.691724 0.693205 10.1016 
32 1 2.203 2.2021 8.57205 
33 1 1.49303 1.49325 9.29058 
16 1 4.55674 6.2719 4.56025 
17 1 3.01542 7.7791 3.01602 
18 1 3.73027 7.08007 3.73222 
25 1 0.626552 9.97235 0.605126 
26 1 2.18454 8.56086 2.17651 
27 1 1.45285 9.22374 1.43853 
4 1 4.6092 6.18734 6.17347 
5 1 3.08694 7.68881 7.68643 
6 1 3.80324 6.98229 6.97451 
37 1 0.715023 10.0177 10.0331 
38 1 2.2596 8.49911 8.50475 
39 1 1.54276 9.20389 9.21406 
13 1 6.27114 4.55816 4.55914 
14 1 7.77698 3.01524 3.0139 
15 1 7.07883 3.73058 3.73032 
28 1 9.96173 0.622417 0.599726 
29 1 8.55667 2.18293 2.17162 
30 1 9.21691 1.44965 1.43298 
1 1 6.18469 4.60941 6.16956 
2 1 7.68648 3.08955 7.68393 
3 1 6.97968 3.80486 6.9712 
40 1 10.0088 0.71367 10.0312 
41 1 8.49489 2.26166 8.5019 
42 1 9.19755 1.54318 9.21173 
7 1 6.17335 6.17036 4.60302 
8 1 7.68339 7.68299 3.09443 
9 1 6.9717 6.97008 3.80543 
43 1 9.99926 10.0067 0.703955 
44 1 8.49206 8.49397 2.26862 
45 1 9.193 9.19748 1.54096 
22 1 6.23736 6.24066 6.24445 
23 1 7.76449 7.76463 7.76466 
24 1 7.05114 7.05275 7.05454 
34 1 10.0856 10.0843 10.0614 
35 1 8.57502 8.57382 8.57305 
36 1 9.29147 9.29019 9.27894 
ITEM: TIMESTEP
150
ITEM: NUMBER OF ATOMS
49
ITEM: BOX BOUNDS pp pp pp
-3.0331965329342151e-03 1.1003033196532936e+01
-2.9437017022371850e-03 1.1004943701702238e+01
-1.3867642286130109e-03 1.1001386764228613e+01
ITEM: ATOMS id type x y z 
10 1 4.63348 4.63992 4.63818 
11 1 3.16649 3.178 3.05127 
12 1 3.86278 3.87188 3.80448 
46 1 0.640715 0.661062 0.746309 
47 1 2.38561 2.36229 2.25889 
48 1 1.61568 1.55192 1.73623 
49 2 0.558755 0.596736 2.15072 
19 1 4.5579 4.56017 6.25697 
20 1 3.01804 3.01741 7.76177 
21 1 3.73382 3.73454 7.06229 
31 1 0.689012 0.69057 10.1028 
32 1 2.20117 2.20031 8.57285 
33 1 1.49081 1.49109 9.29156 
16 1 4.55628 6.27226 4.56008 
17 1 3.01407 7.78029 3.01541 
18 1 3.72934 7.08087 3.73183 
25 1 0.623785 9.97475 0.603807 
26 1 2.18269 8.56251 2.17565 
27 1 1.45063 9.2257 1.43752 
4 1 4.60878 6.18763 6.17357 
5 1 3.08564 7.68996 7.68697 
6 1 3.80228 6.98311 6.9749 
37 1 0.712332 10.0202 10.0343 
38 1 2.25779 8.50073 8.50553 
39 1 1.54054 9.20591 9.21503 
13 1 6.27151 4.55772 4.55897 
14 1 7.77821 3.01393 3.01329 
15 1 7.07966 3.72968 3.72993 
28 1 9.96421 0.619724 0.598406 
29 1 8.55838 2.18113 2.17075 
30 1 9.21892 1.44749 1.43197 
1 1 6.185 4.609 6.16965 
2 1 7.68766 3.08828 7.68446 
3 1 6.98052 3.80393 6.97159 
40 1 10.0113 0.711057 10.0324 
41 1 8.49655 2.2599 8.50269 
42 1 9.19963 1.54102 9.21269 
7 1 6.17364 6.17063 4.60286 
8 1 7.68457 7.68414 3.09385 
9 1 6.97254 6.97089 3.80499 
43 1 10.0018 10.0092 0.702695 