ITEM: TIMESTEP
0
ITEM: NUMBER OF ATOMS
162
ITEM: BOX BOUNDS xy xz yz pp pp pp
-6.7755000000000001e+00 1.3552000000000000e+01 -6.7755000000000001e+00
0.0000000000000000e+00 1.1735510246683001e+01 0.0000000000000000e+00
0.0000000000000000e+00 2.2149999999999999e+01 0.0000000000000000e+00
ITEM: ATOMS id type x y z 
8 1 -2.486 5.297 9.849 
87 1 3.001 4.231 10.696 
90 1 2.733 5.481 9.824 
109 1 -2.486 5.297 0.765 
158 1 2.733 5.481 0.79 
161 2 2.733 5.481 8.474 
162 3 2.733 5.481 7.498 
11 1 4.24 4.139 20.131 
14 1 3.031 4.094 19.728 
18 1 1.299 5.827 18.554 
33 1 2.266 4.151 20.924 
43 1 4.343 3.96 21.647 
47 1 3.32 5.732 17.88 
52 1 4.24 4.139 12.633 
76 1 2.552 4.924 14.209 
85 1 4.343 3.96 11.117 
89 1 3.32 5.732 14.883 
91 1 1.036 5.037 11.84 
102 1 3.031 4.094 13.035 
105 1 1.299 5.827 14.209 
114 1 2.266 4.151 11.84 
150 1 2.552 4.924 18.554 
156 1 3.001 4.231 22.068 
159 1 1.036 5.037 20.924 
5 1 -5.049 10.63 8.653 
9 1 -3.317 8.897 7.479 
19 1 -1.707 7.414 10.572 
21 1 -2.66 8.795 10.993 
23 1 -3.31 7.532 6.805 
25 1 -4.284 10.573 9.849 
32 1 1.503 6.367 0.79 
36 1 -1.869 7.426 9.056 
38 1 -2.209 6.086 8.653 
54 1 0.3 8.576 10.696 
57 1 1.291 8.001 9.824 
60 1 -1.707 7.414 0.042 
65 1 -3.31 7.532 3.808 
78 1 -1.869 7.426 1.558 
80 1 -2.566 8.842 1.961 
84 1 -4.57 9.799 3.135 
99 1 -3.054 9.687 0.765 
100 1 -2.96 6.142 3.135 
107 1 -5.049 10.63 1.961 
110 1 -3.317 8.897 3.135 
111 1 0.642 5.929 10.696 
113 1 1.503 6.367 9.824 
119 1 -4.284 10.573 0.765 
127 1 -2.209 6.086 1.961 
131 1 -2.318 6.148 10.993 
138 1 1.291 8.001 0.79 
142 1 -2.566 8.842 8.653 
145 1 -4.57 9.799 7.479 
151 1 -5.019 10.493 10.993 
154 1 -3.054 9.687 9.849 
155 1 -2.96 6.142 7.479 
12 1 2.53 7.1 17.202 
17 1 0.468 9.427 20.924 
24 1 -3.52 8.357 11.865 
27 1 -0.31 7.31 21.647 
29 1 0.642 5.929 22.068 
31 1 1.292 7.192 17.88 
44 1 -0.148 7.298 20.131 
46 1 0.191 8.638 19.728 
51 1 -0.31 7.31 11.117 
53 1 2.53 7.1 15.561 
56 1 1.292 7.192 14.883 
63 1 -2.318 6.148 21.771 
66 1 -3.309 6.723 20.899 
70 1 -0.148 7.298 12.633 
72 1 0.548 5.882 13.035 
92 1 0.942 8.582 14.209 
95 1 -5.019 10.493 21.771 
98 1 -4.751 9.243 20.899 
104 1 0.468 9.427 11.84 
116 1 -2.66 8.795 21.771 
118 1 -3.52 8.357 20.899 
122 1 0.191 8.638 13.035 
133 1 -3.309 6.723 11.865 
136 1 0.3 8.576 22.068 
147 1 0.548 5.882 19.728 
153 1 -4.751 9.243 11.865 
160 1 0.942 8.582 18.554 
1 1 7.976 4.694 10.572 
4 1 9.274 4.77 10.993 
20 1 8.034 4.861 9.056 
42 1 9.55 5.41 7.479 
67 1 10.043 4.578 0.765 
77 1 7.976 4.694 0.042 
94 1 8.035 4.861 1.558 
96 1 9.278 4.635 1.961 
121 1 4.688 5.417 10.696 
130 1 9.55 5.41 3.135 
134 1 10.043 4.578 9.849 
152 1 9.278 4.635 8.653 
45 1 4.688 5.417 22.068 
55 1 4.788 5.329 13.035 
106 1 9.274 4.77 21.771 
137 1 4.788 5.329 19.728 
2 1 7.294 10.585 9.056 
3 1 9.004 7.624 6.127 
6 1 8.556 6.347 6.805 
16 1 2.314 8.72 0.79 
22 1 7.166 6.156 8.653 
26 1 7.226 8.565 7.479 
35 1 7.191 10.764 10.572 
37 1 6.846 9.307 10.993 
39 1 8.214 8.992 6.805 
41 1 6.677 7.002 9.849 
48 1 3.775 6.213 0.79 
61 1 7.294 10.585 1.558 
62 1 9.004 7.624 4.487 
64 1 6.747 9.395 1.961 
68 1 7.437 6.931 3.135 
71 1 4.29 8.493 10.696 
74 1 3.567 7.818 9.824 
81 1 8.556 6.347 3.808 
83 1 6.47 8.606 0.765 
93 1 7.191 10.764 0.042 
97 1 8.214 8.992 3.808 
101 1 2.261 9.954 10.696 
103 1 2.314 8.72 9.824 
117 1 7.166 6.156 1.961 
120 1 7.226 8.565 3.135 
123 1 3.775 6.213 9.824 
129 1 6.677 7.002 0.765 
132 1 6.747 9.395 8.653 
135 1 7.437 6.931 7.479 
141 1 7.244 6.231 10.993 
144 1 6.47 8.606 9.849 
148 1 3.567 7.818 0.79 
7 1 9.22 6.004 11.865 
10 1 3.558 10.029 21.647 
13 1 2.261 9.954 22.068 
15 1 2.978 8.376 17.88 
28 1 3.5 9.862 20.131 
30 1 4.369 8.568 19.728 
34 1 4.308 6.159 18.554 
40 1 7.76 8.511 11.865 
49 1 4.857 7.722 20.924 
50 1 1.984 9.314 18.554 
58 1 1.491 10.146 11.84 
59 1 4.097 7.793 14.209 
69 1 3.558 10.029 11.117 
73 1 2.978 8.376 14.883 
75 1 5.064 6.118 11.84 
79 1 7.244 6.231 21.771 
82 1 7.967 6.906 20.899 
86 1 3.5 9.862 12.633 
88 1 2.256 10.089 13.035 
108 1 9.22 6.004 20.899 
112 1 4.369 8.568 13.035 
115 1 4.308 6.159 14.209 
124 1 4.857 7.722 11.84 
125 1 1.984 9.314 14.209 
126 1 6.846 9.307 21.771 
128 1 7.76 8.511 20.899 
139 1 1.491 10.146 20.924 
140 1 4.097 7.793 18.554 
143 1 7.967 6.906 11.865 
146 1 4.29 8.493 22.068 
149 1 5.064 6.118 20.924 
157 1 2.256 10.089 19.728 
ITEM: TIMESTEP
10
ITEM: NUMBER OF ATOMS
162
ITEM: BOX BOUNDS xy xz yz pp pp pp
-6.7755000000000001e+00 1.3552000000000000e+01 -6.7755000000000001e+00
0.0000000000000000e+00 1.1735510246683001e+01 0.0000000000000000e+00
0.0000000000000000e+00 2.2149999999999999e+01 0.0000000000000000e+00
ITEM: ATOMS id type x y z 
8 1 -2.40901 5.35806 9.83854 
87 1 3.07977 4.28478 10.7083 
90 1 2.74281 5.6166 9.60976 
109 1 -2.40917 5.35975 0.777527 
158 1 2.6557 5.45747 0.838235 
161 2 2.72213 5.45338 8.49647 
162 3 2.73271 5.47469 7.49078 
11 1 4.29818 4.18416 20.1333 
14 1 2.90769 4.12063 19.6872 
18 1 1.3215 5.84417 18.6032 
33 1 2.12091 4.23897 20.9032 
43 1 4.33307 4.10367 21.5866 
47 1 3.24801 5.80222 17.8426 
52 1 4.29345 4.17131 12.6482 
76 1 2.43485 4.90683 14.1873 
85 1 4.32771 4.05382 11.202 
89 1 3.25943 5.79878 14.9219 
91 1 0.989427 5.08357 11.8529 
102 1 2.90889 4.12202 13.0753 
105 1 1.32043 5.85438 14.1676 
114 1 2.1476 4.23848 11.8412 
150 1 2.43284 4.90854 18.5766 
156 1 2.97392 4.27737 22.127 
159 1 0.972397 5.09903 20.9047 
5 1 -4.92955 10.6068 8.63305 
9 1 -3.35657 8.86795 7.51899 
19 1 -1.75812 7.52439 10.5616 
21 1 -2.61083 8.75701 10.9129 
23 1 -3.32013 7.51583 6.83321 
25 1 -4.14936 10.4787 9.83236 
32 1 1.57757 6.33471 0.775383 
36 1 -1.91333 7.54054 9.05278 
38 1 -2.15307 6.21505 8.64517 
54 1 0.269597 8.51898 10.6968 
57 1 1.27675 7.91601 9.76266 
60 1 -1.76389 7.52441 0.0588929 
65 1 -3.32342 7.51881 3.77617 
78 1 -1.91405 7.53956 1.56129 
80 1 -2.56246 8.77586 1.88777 
84 1 -4.45386 9.81975 3.11282 
99 1 -2.99468 9.62821 0.789545 
100 1 -2.91442 6.25913 3.17467 
107 1 -4.92041 10.6045 1.9885 
110 1 -3.34505 8.87023 3.09247 
111 1 0.603875 5.95155 10.7739 
113 1 1.46945 6.4524 9.84399 
119 1 -4.14516 10.4775 0.789833 
127 1 -2.15491 6.21595 1.96748 
131 1 -2.31216 6.20227 11.0157 
138 1 1.35439 7.9996 0.830849 
142 1 -2.56546 8.78027 8.7222 
145 1 -4.45348 9.8331 7.5042 
151 1 -5.00571 10.438 11.0385 
154 1 -2.99318 9.62298 9.82638 
155 1 -2.91349 6.2576 7.43807 
12 1 2.58194 7.06854 17.1193 
17 1 0.393719 9.36059 20.9173 
24 1 -3.58132 8.39526 11.8612 
27 1 -0.251362 7.20824 21.6307 
29 1 0.600873 5.9698 21.985 
31 1 1.30249 7.20383 17.9056 
44 1 -0.102534 7.18658 20.1349 
46 1 0.135913 8.51016 19.7247 
51 1 -0.267349 7.24102 11.133 
53 1 2.57631 7.06932 15.6446 
56 1 1.30269 7.19817 14.8493 
63 1 -2.31187 6.20306 21.7481 
66 1 -3.37234 6.71903 20.8542 
70 1 -0.113978 7.18435 12.6276 
72 1 0.548985 5.93577 12.9629 
92 1 0.903931 8.46904 14.2488 
95 1 -4.99603 10.4448 21.718 
98 1 -4.69145 9.26796 20.8492 
104 1 0.392947 9.36292 11.8425 
116 1 -2.60319 8.75707 21.8557 
118 1 -3.58502 8.39064 20.8966 
122 1 0.142056 8.51934 13.0459 
133 1 -3.3729 6.72157 11.9105 
136 1 0.297546 8.51901 22.0873 
147 1 0.547125 5.94395 19.8041 
153 1 -4.68772 9.26919 11.9072 
160 1 0.900941 8.47215 18.5138 
1 1 7.89558 4.95013 10.529 
4 1 9.17263 4.77978 11.0337 
20 1 7.87087 4.94428 9.07174 
42 1 9.45757 5.4128 7.42344 
67 1 9.98272 4.54559 0.756368 
77 1 7.89637 4.94973 0.0856655 
94 1 7.87268 4.9439 1.54087 
96 1 9.19651 4.63938 1.98359 
121 1 4.6216 5.39714 10.6479 
130 1 9.45774 5.41478 3.18989 
134 1 9.9825 4.54458 9.8571 
152 1 9.19604 4.63911 8.63036 
45 1 4.6909 5.42348 22.0511 
55 1 4.83279 5.4979 13.0702 
106 1 9.1724 4.78061 21.7306 
137 1 4.82692 5.49232 19.6936 
2 1 7.24429 10.5413 9.07204 
3 1 8.96269 7.64278 6.04139 
6 1 8.55304 6.42708 6.83066 
16 1 2.34406 8.70284 0.831369 
22 1 7.15296 6.18353 8.7261 
26 1 7.17758 8.43168 7.5469 
35 1 7.22315 10.606 10.5012 
37 1 6.85274 9.31374 10.9808 
39 1 8.29074 8.92484 6.77852 
41 1 6.73687 7.01863 9.83805 
48 1 3.71371 6.37408 0.85405 
61 1 7.23603 10.5395 1.55127 
62 1 8.9595 7.64773 4.56581 
64 1 6.70918 9.2316 1.99035 
68 1 7.40538 6.96368 3.05749 
71 1 4.28444 8.55401 10.7915 
74 1 3.6311 7.7571 9.85208 
81 1 8.5538 6.42972 3.7805 
83 1 6.55104 8.43458 0.791271 
93 1 7.20188 10.6068 0.107752 
97 1 8.27864 8.92452 3.83441 
101 1 2.36665 9.91818 10.6326 
103 1 2.41268 8.74351 9.7873 
117 1 7.152 6.18911 1.88808 
120 1 7.1757 8.43044 3.06458 
123 1 3.68861 6.29704 9.83468 
129 1 6.74117 7.02347 0.776452 
132 1 6.70666 9.23699 8.61665 
135 1 7.40239 6.96014 7.55821 
141 1 7.25395 6.16779 10.9037 
144 1 6.54612 8.43489 9.81605 
148 1 3.63559 7.79507 0.766454 
7 1 9.18834 6.022 11.9099 
10 1 3.63684 9.77202 21.599 
13 1 2.36205 9.93992 22.1052 
15 1 2.98591 8.30288 17.9098 
28 1 3.65615 9.77278 20.1494 
30 1 4.37276 8.54519 19.7867 
34 1 4.3595 6.3006 18.6282 
40 1 7.80709 8.35453 11.9249 
49 1 4.80147 7.70151 20.9112 
50 1 2.07516 9.30635 18.507 
58 1 1.55104 10.1718 11.838 
59 1 4.12787 7.76523 14.1289 
69 1 3.65494 9.77236 11.1692 
73 1 2.98131 8.30224 14.8518 
75 1 4.98515 6.29955 11.8985 
79 1 7.25144 6.17108 21.8641 
82 1 7.89517 6.9322 20.9229 
86 1 3.65846 9.78207 12.6117 
88 1 2.33195 10.0794 13.0606 
108 1 9.18854 6.02178 20.8547 
112 1 4.37749 8.54256 12.9778 
115 1 4.35922 6.30202 14.143 
124 1 4.80975 7.6988 11.8563 
125 1 2.07378 9.30383 14.2562 
126 1 6.86053 9.30777 21.7973 
128 1 7.80446 8.35381 20.8406 
139 1 1.55249 10.1752 20.934 
140 1 4.1258 7.76333 18.6337 
143 1 7.89609 6.93397 11.8423 
146 1 4.27606 8.56346 21.9866 
149 1 4.99014 6.27567 20.8915 
157 1 2.34135 10.0786 19.7019 
ITEM: TIMESTEP
20
ITEM: NUMBER OF ATOMS
162
ITEM: BOX BOUNDS xy xz yz pp pp pp
-6.7755000000000001e+00 1.3552000000000000e+01 -6.7755000000000001e+00
0.0000000000000000e+00 1.1735510246683001e+01 0.0000000000000000e+00
0.0000000000000000e+00 2.2149999999999999e+01 0.0000000000000000e+00
ITEM: ATOMS id type x y z 
8 1 -2.42039 5.38448 9.83995 
87 1 3.03546 4.28181 10.715 
90 1 2.70255 5.59917 9.5975 
109 1 -2.42036 5.38409 0.773619 
158 1 2.66782 5.45245 0.839303 
161 2 2.7254 5.45338 8.48614 
162 3 2.73258 5.47074 7.49159 
11 1 4.28288 4.21183 20.127 
14 1 2.89978 4.1405 19.6971 
18 1 1.30734 5.85491 18.5874 
33 1 2.11339 4.25788 20.9062 
43 1 4.31592 4.15714 21.5808 
47 1 3.25875 5.79229 17.8432 
52 1 4.28637 4.19875 12.662 
76 1 2.44561 4.91863 14.1833 
85 1 4.32487 4.09782 11.2099 
89 1 3.26188 5.79198 14.9209 
91 1 0.985977 5.09781 11.8536 
102 1 2.90482 4.1382 13.0788 
105 1 1.30917 5.8557 14.176 
114 1 2.14309 4.2594 11.8324 
150 1 2.4444 4.91863 18.5839 
156 1 2.96457 4.278 22.1052 
159 1 0.97287 5.10489 20.911 
5 1 -4.91756 10.5865 8.62608 
9 1 -3.33261 8.86709 7.51233 
19 1 -1.76204 7.52398 10.5606 
21 1 -2.62328 8.76145 10.9345 
23 1 -3.30682 7.53074 6.83199 
25 1 -4.12944 10.4632 9.8321 
32 1 1.59129 6.35553 0.772981 
36 1 -1.89793 7.54925 9.06033 
38 1 -2.1591 6.21941 8.64481 
54 1 0.2779 8.50731 10.6904 
57 1 1.27171 7.93005 9.75516 
60 1 -1.76644 7.52177 0.0545542 
65 1 -3.30759 7.53268 3.77819 
78 1 -1.89335 7.54929 1.55385 
80 1 -2.55796 8.7906 1.88858 
84 1 -4.46507 9.8071 3.10482 
99 1 -2.98931 9.61598 0.778537 
100 1 -2.93308 6.26168 3.17522 
107 1 -4.91674 10.5851 1.9919 
110 1 -3.32798 8.86774 3.10288 
111 1 0.603919 5.93771 10.7536 
113 1 1.45776 6.45778 9.8495 
119 1 -4.13072 10.4623 0.782766 
127 1 -2.15926 6.21662 1.97005 
131 1 -2.32808 6.21542 11.0098 
138 1 1.3583 7.99105 0.823223 
142 1 -2.559 8.7886 8.72096 
145 1 -4.46481 9.81244 7.5104 
151 1 -4.9832 10.4512 11.033 
154 1 -2.98949 9.6134 9.83616 
155 1 -2.9322 6.2607 7.43976 
12 1 2.56381 7.06549 17.1397 
17 1 0.401944 9.34033 20.915 
24 1 -3.60442 8.37481 11.8548 
27 1 -0.250684 7.20521 21.6334 
29 1 0.608738 5.96407 22.0092 
31 1 1.29274 7.1917 17.9088 
44 1 -0.120872 7.17532 20.1371 
46 1 0.142299 8.50692 19.7194 
51 1 -0.278212 7.22833 11.148 
53 1 2.56326 7.06506 15.6237 
56 1 1.2905 7.18912 14.8544 
63 1 -2.32726 6.21702 21.7537 
66 1 -3.37489 6.73016 20.8655 
70 1 -0.122343 7.17457 12.6281 
72 1 0.544229 5.92585 12.9543 
92 1 0.915456 8.45964 14.2475 
95 1 -4.98223 10.4471 21.7348 
98 1 -4.68678 9.27243 20.8469 
104 1 0.400488 9.34628 11.8447 
116 1 -2.62408 8.75983 21.8275 
118 1 -3.60551 8.37505 20.9107 
122 1 0.143176 8.50356 13.0478 
133 1 -3.37467 6.72918 11.8987 
136 1 0.308415 8.50749 22.0879 
147 1 0.540203 5.93363 19.8026 
153 1 -4.68473 9.26948 11.9176 
160 1 0.915099 8.45936 18.5135 
1 1 7.87852 4.93876 10.5247 
4 1 9.17155 4.78703 11.0233 
20 1 7.85467 4.94004 9.06322 
42 1 9.46639 5.43123 7.44056 
67 1 9.97768 4.56152 0.762171 
77 1 7.87858 4.93759 0.0897112 
94 1 7.85582 4.94088 1.55006 
96 1 9.18688 4.65985 1.99469 
121 1 4.64654 5.44839 10.6817 
130 1 9.46627 5.4315 3.17367 
134 1 9.97736 4.56126 9.85115 
152 1 9.18695 4.66035 8.6189 
45 1 4.66618 5.45456 22.0488 
55 1 4.82353 5.50741 13.0619 
106 1 9.1718 4.787 21.7405 
137 1 4.81831 5.49677 19.6993 
2 1 7.24817 10.5186 9.051 
3 1 8.97475 7.65222 6.06203 
6 1 8.52636 6.39714 6.83232 
16 1 2.35604 8.69534 0.844727 
22 1 7.13439 6.19323 8.72119 
26 1 7.19039 8.42363 7.54573 
35 1 7.22565 10.5603 10.4977 
37 1 6.86107 9.27103 10.9757 
39 1 8.27472 8.93646 6.77408 
41 1 6.72991 7.00587 9.83178 
48 1 3.70222 6.36269 0.833211 
61 1 7.2538 10.513 1.56223 
62 1 8.97122 7.65675 4.54878 
64 1 6.71446 9.22846 1.99177 
68 1 7.3968 6.96636 3.05315 
71 1 4.30991 8.5287 10.7794 
74 1 3.60486 7.78943 9.83837 
81 1 8.5275 6.39846 3.78102 
83 1 6.55066 8.44225 0.78379 
93 1 7.21571 10.5744 0.107169 
97 1 8.27182 8.93467 3.84114 
101 1 2.37702 9.90623 10.6371 
103 1 2.43816 8.71915 9.78588 
117 1 7.13483 6.19341 1.8954 
120 1 7.18689 8.42282 3.0681 
123 1 3.71618 6.309 9.84581 
129 1 6.73146 7.00449 0.782012 
132 1 6.71535 9.22685 8.62323 
135 1 7.39636 6.96603 7.56225 
141 1 7.23148 6.19041 10.9191 
144 1 6.55036 8.44448 9.8287 
148 1 3.60514 7.78668 0.787963 
7 1 9.17788 6.0288 11.9202 
10 1 3.65264 9.78265 21.5981 
13 1 2.36279 9.93848 22.0997 
15 1 3.00599 8.32753 17.9039 
28 1 3.67196 9.78336 20.1421 
30 1 4.40553 8.52811 19.7925 
34 1 4.3451 6.30168 18.6222 
40 1 7.82621 8.35977 11.9119 
49 1 4.80245 7.7168 20.9066 
50 1 2.07003 9.28895 18.5162 
58 1 1.56249 10.1533 11.8379 
59 1 4.13505 7.75795 14.1321 
69 1 3.68123 9.78041 11.1727 
73 1 3.00175 8.32789 14.8581 
75 1 4.96783 6.28724 11.8707 
79 1 7.23179 6.1893 21.845 
82 1 7.92465 6.93436 20.9036 
86 1 3.67608 9.78732 12.6199 
88 1 2.33838 10.0635 13.0637 
108 1 9.17844 6.0289 20.8439 
112 1 4.40661 8.53391 12.977 
115 1 4.3474 6.30494 14.1463 
124 1 4.81552 7.70643 11.8672 
125 1 2.07035 9.28848 14.2446 
126 1 6.87071 9.26933 21.7908 
128 1 7.8269 8.35852 20.8529 
139 1 1.55867 10.1618 20.9256 
140 1 4.13319 7.75713 18.6309 
143 1 7.92452 6.93426 11.8595 
146 1 4.30726 8.53217 21.996 
149 1 4.98569 6.28277 20.9059 
157 1 2.34696 10.0641 19.6928 
ITEM: TIMESTEP
30
ITEM: NUMBER OF ATOMS
162
ITEM: BOX BOUNDS xy xz yz pp pp pp
-6.7755000000000001e+00 1.3552000000000000e+01 -6.7755000000000001e+00
0.0000000000000000e+00 1.1735510246683001e+01 0.0000000000000000e+00
0.0000000000000000e+00 2.2149999999999999e+01 0.0000000000000000e+00
ITEM: ATOMS id type x y z 
8 1 -2.44264 5.42494 9.8302 
87 1 2.99652 4.31006 10.7028 
90 1 2.69399 5.59875 9.6149 
109 1 -2.44186 5.42403 0.780463 
158 1 2.64202 5.42962 0.842277 
161 2 2.71987 5.4435 8.4624 
162 3 2.73353 5.46015 7.48361 
11 1 4.2674 4.24643 20.1181 
14 1 2.87501 4.16339 19.7073 
18 1 1.28814 5.84906 18.5646 
33 1 2.07253 4.27826 20.8978 
43 1 4.28819 4.22495 21.5624 
47 1 3.24168 5.80214 17.8213 
52 1 4.27986 4.22327 12.6665 
76 1 2.44147 4.92765 14.1858 
85 1 4.27034 4.20933 11.2286 
89 1 3.24225 5.80569 14.9414 
91 1 0.959532 5.12299 11.8332 
102 1 2.88946 4.16191 13.0668 
105 1 1.29064 5.84846 14.1946 
114 1 2.11509 4.278 11.837 
150 1 2.43761 4.93451 18.5792 
156 1 2.93976 4.27948 22.1136 
159 1 0.946714 5.13418 20.9307 
5 1 -4.89694 10.5578 8.63385 
9 1 -3.30241 8.87943 7.49121 
19 1 -1.76564 7.54892 10.5659 
21 1 -2.62628 8.76337 10.9767 
23 1 -3.28704 7.55327 6.81671 
25 1 -4.09744 10.4439 9.82553 
32 1 1.61489 6.3926 0.783451 
36 1 -1.86569 7.57351 9.06767 
38 1 -2.15926 6.2476 8.63906 
54 1 0.289881 8.47491 10.6813 
57 1 1.26143 7.93476 9.73266 
60 1 -1.7713 7.54331 0.0550911 
65 1 -3.29059 7.55057 3.79665 
78 1 -1.86739 7.57593 1.53966 
80 1 -2.52384 8.79594 1.90024 
84 1 -4.45611 9.7867 3.10881 
99 1 -2.96585 9.58917 0.756051 
100 1 -2.9414 6.2896 3.17152 
107 1 -4.89443 10.5589 1.9816 
110 1 -3.30858 8.87727 3.12365 
111 1 0.570874 5.932 10.7165 
113 1 1.44295 6.46726 9.83969 
119 1 -4.09297 10.4435 0.788394 
127 1 -2.15452 6.25139 1.97488 
131 1 -2.34518 6.24318 11.0144 
138 1 1.37494 7.97507 0.817918 
142 1 -2.52731 8.80024 8.7168 
145 1 -4.45838 9.78259 7.5068 
151 1 -4.96122 10.4413 11.0384 
154 1 -2.96733 9.59001 9.85615 
155 1 -2.93791 6.28775 7.44518 
12 1 2.56054 7.08181 17.1582 
17 1 0.424237 9.2995 20.9061 
24 1 -3.64017 8.33505 11.8584 
27 1 -0.245963 7.18012 21.6396 
29 1 0.600726 5.96183 22.0483 
31 1 1.27133 7.17334 17.8943 
44 1 -0.153132 7.14896 20.1443 
46 1 0.141372 8.47589 19.7145 
51 1 -0.294692 7.19421 11.1605 
53 1 2.55676 7.08217 15.6051 
56 1 1.27247 7.1749 14.8691 
63 1 -2.34301 6.24604 21.7483 
66 1 -3.39464 6.74966 20.8718 
70 1 -0.157062 7.14486 12.6318 
72 1 0.525202 5.91287 12.9664 
92 1 0.923626 8.43387 14.2442 
95 1 -4.9553 10.4412 21.7289 
98 1 -4.66283 9.29643 20.8491 
104 1 0.420942 9.29966 11.8529 
116 1 -2.62212 8.76102 21.7868 
118 1 -3.63938 8.33434 20.9057 
122 1 0.143091 8.47481 13.0492 
133 1 -3.39491 6.74639 11.8931 
136 1 0.324692 8.48106 22.09 
147 1 0.510092 5.92314 19.7895 
153 1 -4.666 9.29129 11.9209 
160 1 0.922733 8.43434 18.5198 
1 1 7.82888 4.93871 10.5199 
4 1 9.13756 4.81993 11.0006 
20 1 7.81429 4.93923 9.06318 
42 1 9.44438 5.46503 7.44622 
67 1 9.95634 4.59246 0.776828 
77 1 7.82742 4.93631 0.0924488 
94 1 7.81594 4.93974 1.5513 
96 1 9.15277 4.69351 1.99696 
121 1 4.67143 5.51835 10.6589 
130 1 9.44225 5.46779 3.16867 
134 1 9.95575 4.59299 9.8365 
152 1 9.15265 4.69262 8.61832 
45 1 4.63656 5.52721 22.0884 
55 1 4.81414 5.52948 13.0764 
106 1 9.13824 4.82105 21.7632 
137 1 4.81502 5.53138 19.6959 
2 1 7.2702 10.4803 9.04047 
3 1 8.97105 7.64871 6.08149 
6 1 8.49748 6.38515 6.80483 
16 1 2.36456 8.69787 0.867628 
22 1 7.08875 6.17753 8.70367 
26 1 7.19889 8.41522 7.53594 
35 1 7.25906 10.4865 10.4713 
37 1 6.89735 9.19781 11.0159 
39 1 8.28767 8.91969 6.74415 
41 1 6.69981 6.98539 9.8401 
48 1 3.70432 6.33976 0.821629 
61 1 7.27121 10.477 1.56719 
62 1 8.97425 7.64454 4.5324 
64 1 6.71953 9.1966 1.99478 
68 1 7.37979 6.95871 3.06481 
71 1 4.34785 8.53635 10.7794 
74 1 3.61373 7.78388 9.78682 
81 1 8.49969 6.38682 3.80571 
83 1 6.54599 8.40272 0.796441 
93 1 7.24941 10.5022 0.12448 
97 1 8.29127 8.91823 3.867 
101 1 2.42187 9.87773 10.6483 
103 1 2.45055 8.70384 9.78333 
117 1 7.08872 6.17596 1.91079 
120 1 7.19948 8.41331 3.07957 
123 1 3.69046 6.31619 9.8567 
129 1 6.70179 6.98112 0.772796 
132 1 6.72006 9.20018 8.62376 
135 1 7.37891 6.95774 7.55181 
141 1 7.20592 6.2085 10.9533 
144 1 6.54328 8.40588 9.81991 
148 1 3.58665 7.81249 0.816465 
7 1 9.1674 6.02734 11.9417 
10 1 3.70257 9.77966 21.5958 
13 1 2.39553 9.90542 22.079 
15 1 3.03392 8.33624 17.8809 
28 1 3.72103 9.7793 20.1384 
30 1 4.44595 8.54997 19.7711 
34 1 4.33403 6.31033 18.6096 
40 1 7.8476 8.38005 11.895 
49 1 4.83258 7.74287 20.9152 
50 1 2.09048 9.25579 18.5181 
58 1 1.58093 10.1109 11.8397 
59 1 4.15215 7.77372 14.1471 
69 1 3.76005 9.77794 11.1733 
73 1 3.02846 8.33966 14.8809 
75 1 4.97841 6.30331 11.8762 
79 1 7.21246 6.2087 21.8114 
82 1 7.94935 6.9133 20.8739 
86 1 3.7287 9.78387 12.6346 
88 1 2.3733 10.0257 13.0574 
108 1 9.16791 6.02869 20.8229 
112 1 4.45007 8.55245 13.0017 
115 1 4.33559 6.3125 14.1572 
124 1 4.84738 7.74388 11.8581 
125 1 2.09048 9.25742 14.2384 
126 1 6.89579 9.19547 21.7516 
128 1 7.84015 8.38223 20.869 
139 1 1.5778 10.1313 20.9117 
140 1 4.15222 7.76747 18.6235 
143 1 7.94897 6.91956 11.891 
146 1 4.32595 8.51702 22.0315 
149 1 4.99182 6.3203 20.8926 
157 1 2.38116 10.0307 19.6925 
ITEM: TIMESTEP
40
ITEM: NUMBER OF ATOMS
162
ITEM: BOX BOUNDS xy xz yz pp pp pp
-6.7755000000000001e+00 1.3552000000000000e+01 -6.7755000000000001e+00
0.0000000000000000e+00 1.1735510246683001e+01 0.0000000000000000e+00
0.0000000000000000e+00 2.2149999999999999e+01 0.0000000000000000e+00
ITEM: ATOMS id type x y z 
8 1 -2.44657 5.43263 9.82889 
87 1 2.98594 4.32894 10.6987 
90 1 2.686 5.59579 9.61198 
109 1 -2.44537 5.43395 0.784023 
158 1 2.64123 5.4378 0.852275 
161 2 2.71788 5.44145 8.46669 
162 3 2.73389 5.45711 7.47918 
11 1 4.26248 4.25427 20.1166 
14 1 2.86835 4.16823 19.7107 
18 1 1.28427 5.84789 18.5645 
33 1 2.07456 4.28276 20.9019 
43 1 4.28144 4.2326 21.5549 
47 1 3.24037 5.79989 17.8245 
52 1 4.27404 4.235 12.6717 
76 1 2.4334 4.92978 14.1887 
85 1 4.26577 4.22649 11.225 
89 1 3.24225 5.8023 14.9399 
91 1 0.952227 5.12563 11.8334 
102 1 2.88752 4.16435 13.0656 
105 1 1.28814 5.84638 14.1956 
114 1 2.11002 4.28244 11.8301 
150 1 2.42934 4.93394 18.5769 
156 1 2.94483 4.29147 22.1094 
159 1 0.940893 5.13364 20.928 
5 1 -4.88744 10.557 8.63641 
9 1 -3.30256 8.87606 7.48909 
19 1 -1.7648 7.55494 10.5664 
21 1 -2.61552 8.76372 10.9778 
23 1 -3.29574 7.54121 6.81935 
25 1 -4.09465 10.4402 9.82888 
32 1 1.60076 6.38484 0.79185 
36 1 -1.86216 7.58239 9.06471 
38 1 -2.1549 6.2567 8.64077 
54 1 0.290788 8.46823 10.6828 
57 1 1.26725 7.9315 9.73143 
60 1 -1.76941 7.55038 0.0486423 
65 1 -3.29602 7.54092 3.79448 
78 1 -1.85979 7.58253 1.54786 
80 1 -2.52147 8.80247 1.90357 
84 1 -4.44772 9.78876 3.11198 
99 1 -2.95876 9.58869 0.761017 
100 1 -2.9367 6.28926 3.16807 
107 1 -4.88571 10.5555 1.97887 
110 1 -3.30323 8.87609 3.12389 
111 1 0.560873 5.93464 10.7135 
113 1 1.44002 6.4669 9.83199 
119 1 -4.09149 10.4395 0.787247 
127 1 -2.15399 6.2563 1.97228 
131 1 -2.34756 6.24531 11.0122 
138 1 1.37712 7.97852 0.822393 
142 1 -2.5226 8.80147 8.71184 
145 1 -4.44774 9.78716 7.50284 
151 1 -4.96329 10.4326 11.0386 
154 1 -2.96077 9.58998 9.85174 
155 1 -2.93682 6.28936 7.44514 
12 1 2.56662 7.0739 17.1513 
17 1 0.427967 9.29114 20.9053 
24 1 -3.61695 8.3413 11.8694 
27 1 -0.247651 7.17394 21.6408 
29 1 0.592494 5.96336 22.0509 
31 1 1.27822 7.18276 17.8948 
44 1 -0.157413 7.14151 20.1412 
46 1 0.136976 8.4673 19.7172 
51 1 -0.293368 7.1893 11.1586 
53 1 2.56287 7.07527 15.6114 
56 1 1.27773 7.18067 14.8675 
63 1 -2.34438 6.2477 21.7507 
66 1 -3.39545 6.74608 20.8667 
70 1 -0.163268 7.13752 12.6357 
72 1 0.521015 5.90902 12.9684 
92 1 0.920146 8.43586 14.2422 
95 1 -4.96159 10.4333 21.7294 
98 1 -4.6599 9.28698 20.836 
104 1 0.42866 9.28995 11.8498 
116 1 -2.61154 8.76029 21.7863 
118 1 -3.61835 8.34077 20.8954 
122 1 0.139215 8.46723 13.048 
133 1 -3.39613 6.74414 11.8987 
136 1 0.326624 8.47739 22.088 
147 1 0.504289 5.92127 19.7855 
153 1 -4.65983 9.28512 11.9321 
160 1 0.919131 8.43515 18.5212 
1 1 7.81645 4.93951 10.5213 
4 1 9.12822 4.82299 10.9984 
20 1 7.80261 4.94226 9.06264 
42 1 9.44222 5.46807 7.44568 
67 1 9.95235 4.60112 0.77889 
77 1 7.81451 4.93529 0.0908199 
94 1 7.80397 4.94249 1.55179 
96 1 9.14148 4.69724 1.9969 
121 1 4.66403 5.52728 10.6638 
130 1 9.44196 5.46777 3.16801 
134 1 9.95074 4.60082 9.83477 
152 1 9.14103 4.69679 8.61694 
45 1 4.63372 5.5232 22.0801 
55 1 4.81528 5.5352 13.0731 
106 1 9.1293 4.82489 21.7655 
137 1 4.81569 5.53987 19.6967 
2 1 7.2701 10.475 9.0343 
3 1 8.96614 7.6506 6.07664 
6 1 8.50597 6.39355 6.8095 
16 1 2.37091 8.70165 0.87204 
22 1 7.07712 6.17496 8.69756 
26 1 7.19998 8.40508 7.53067 
35 1 7.26045 10.4827 10.4685 
37 1 6.8991 9.20102 11.0079 
39 1 8.29306 8.92219 6.74862 
41 1 6.69348 6.97905 9.8376 
48 1 3.69662 6.35238 0.83948 
61 1 7.27275 10.4709 1.57088 
62 1 8.9676 7.64965 4.53774 
64 1 6.71839 9.18587 1.99353 
68 1 7.37647 6.955 3.0663 
71 1 4.346 8.52504 10.762 
74 1 3.61712 7.7944 9.80033 
81 1 8.50519 6.39376 3.8041 
83 1 6.54656 8.39752 0.797529 
93 1 7.25154 10.4956 0.131528 
97 1 8.29298 8.92209 3.86452 
101 1 2.43634 9.86464 10.6573 
103 1 2.4607 8.69676 9.78309 
117 1 7.07733 6.17352 1.91697 
120 1 7.1997 8.40482 3.08491 
123 1 3.69377 6.33388 9.85384 
129 1 6.69475 6.97643 0.775661 
132 1 6.7175 9.18753 8.62216 
135 1 7.37718 6.95532 7.54862 
141 1 7.20194 6.20623 10.9574 
144 1 6.5422 8.40005 9.81902 
148 1 3.59232 7.808 0.821645 
7 1 9.1616 6.02141 11.9475 
10 1 3.71398 9.77999 21.5965 
13 1 2.40449 9.90103 22.076 
15 1 3.02797 8.33084 17.8828 
28 1 3.73114 9.77939 20.1379 
30 1 4.45947 8.54989 19.7691 
34 1 4.3327 6.31863 18.6037 
40 1 7.83848 8.37035 11.9151 
49 1 4.83886 7.74755 20.9113 
50 1 2.09137 9.25679 18.5202 
58 1 1.59337 10.0974 11.8354 
59 1 4.15782 7.77353 14.1497 
69 1 3.76627 9.78361 11.1744 
73 1 3.02289 8.33502 14.8805 
75 1 4.98128 6.31678 11.8769 
79 1 7.20689 6.20576 21.8079 
82 1 7.94081 6.91566 20.8682 
86 1 3.73743 9.78351 12.6309 
88 1 2.38484 10.0191 13.0535 
108 1 9.16286 6.02282 20.8179 
112 1 4.46352 8.55332 13.0044 
115 1 4.33323 6.32099 14.1635 
124 1 4.8536 7.74337 11.8624 
125 1 2.09103 9.25872 14.2354 
126 1 6.90085 9.20099 21.7591 
128 1 7.83745 8.37126 20.8503 
139 1 1.58339 10.1229 20.9101 
140 1 4.15622 7.76911 18.621 
143 1 7.94073 6.91664 11.8957 
146 1 4.33142 8.51838 22.0341 
149 1 4.99061 6.3274 20.8926 
157 1 2.39266 10.0258 19.6923 
ITEM: TIMESTEP
50
ITEM: NUMBER OF ATOMS
162
ITEM: BOX BOUNDS xy xz yz pp pp pp
-6.7755000000000001e+00 1.3552000000000000e+01 -6.7755000000000001e+00
0.0000000000000000e+00 1.1735510246683001e+01 0.0000000000000000e+00
0.0000000000000000e+00 2.2149999999999999e+01 0.0000000000000000e+00
ITEM: ATOMS id type x y z 
8 1 -2.47977 5.48314 9.82202 
87 1 2.92963 4.41467 10.6681 
90 1 2.65492 5.6115 9.59302 
109 1 -2.47566 5.48476 0.78834 
158 1 2.62426 5.47588 0.898985 
161 2 2.70165 5.42377 8.47215 
162 3 2.73613 5.43541 7.46105 
11 1 4.2384 4.30574 20.0848 
14 1 2.83563 4.20122 19.7164 
18 1 1.2572 5.85212 18.5492 
33 1 2.05552 4.31082 20.9233 
43 1 4.23996 4.30702 21.5241 
47 1 3.22339 5.7963 17.836 
52 1 4.23743 4.3037 12.6704 
76 1 2.40093 4.92543 14.1959 
85 1 4.21234 4.32126 11.2282 
89 1 3.22821 5.79444 14.9362 
91 1 0.9035 5.13737 11.825 
102 1 2.85317 4.1934 13.0547 
105 1 1.26475 5.84677 14.2121 
114 1 2.07002 4.31356 11.8209 
150 1 2.3844 4.92868 18.5641 
156 1 2.924 4.33745 22.1167 
159 1 0.900674 5.14279 20.9313 
5 1 -4.85849 10.5312 8.63517 
9 1 -3.27517 8.86953 7.47464 
19 1 -1.76867 7.58218 10.5702 
21 1 -2.57939 8.77214 10.9905 
23 1 -3.30958 7.53182 6.81147 
25 1 -4.0757 10.4185 9.85248 
32 1 1.5588 6.36574 0.834922 
36 1 -1.82309 7.62197 9.05774 
38 1 -2.13555 6.30201 8.64537 
54 1 0.30551 8.43122 10.6753 
57 1 1.28245 7.90989 9.71919 
60 1 -1.75921 7.57843 0.0462888 
65 1 -3.30977 7.53247 3.7986 
78 1 -1.81966 7.6221 1.55495 
80 1 -2.48254 8.82862 1.92408 
84 1 -4.40298 9.7966 3.12545 
99 1 -2.91748 9.58001 0.756626 
100 1 -2.92997 6.28494 3.15955 
107 1 -4.85214 10.523 1.97168 
110 1 -3.27486 8.86797 3.14036 
111 1 0.508864 5.93735 10.6888 
113 1 1.412 6.4497 9.78512 
119 1 -4.07294 10.4145 0.766207 
127 1 -2.13535 6.30254 1.96747 
131 1 -2.38153 6.27583 11.0074 
138 1 1.39983 7.98375 0.84415 
142 1 -2.48334 8.82524 8.68509 
145 1 -4.40353 9.79793 7.48615 
151 1 -4.94024 10.3876 11.0403 
154 1 -2.91802 9.58268 9.86121 
155 1 -2.93066 6.28618 7.45301 
12 1 2.57912 7.05324 17.1387 
17 1 0.458457 9.23929 20.8997 
24 1 -3.58365 8.35504 11.9166 
27 1 -0.259013 7.14791 21.6413 
29 1 0.562308 5.95415 22.0694 
31 1 1.29312 7.19076 17.8877 
44 1 -0.197282 7.102 20.1351 
46 1 0.11875 8.42317 19.7215 
51 1 -0.298256 7.15378 11.1611 
53 1 2.57536 7.05658 15.6234 
56 1 1.291 7.18361 14.8671 
63 1 -2.37181 6.27938 21.7534 
66 1 -3.4176 6.74085 20.845 
70 1 -0.206356 7.09822 12.6544 
72 1 0.483131 5.88684 12.9857 
92 1 0.913576 8.43525 14.2333 
95 1 -4.94154 10.3881 21.7214 
98 1 -4.64076 9.24624 20.7903 
104 1 0.46952 9.22808 11.8468 
116 1 -2.57796 8.76929 21.7718 
118 1 -3.57908 8.35677 20.8523 
122 1 0.123221 8.42096 13.046 
133 1 -3.42173 6.73828 11.9224 
136 1 0.354057 8.44348 22.0854 
147 1 0.464036 5.89453 19.7655 
153 1 -4.64392 9.24941 11.9777 
160 1 0.912437 8.43702 18.529 
1 1 7.74173 4.93365 10.5291 
4 1 9.07558 4.85277 10.9829 
20 1 7.73113 4.95134 9.05962 
42 1 9.43316 5.48202 7.45559 
67 1 9.91083 4.66171 0.789682 
77 1 7.73541 4.91996 0.0819114 
94 1 7.73365 4.95195 1.55389 
96 1 9.07676 4.73203 1.99698 
121 1 4.64451 5.59352 10.6652 
130 1 9.43352 5.48192 3.15713 
134 1 9.90693 4.65913 9.82283 
152 1 9.07612 4.73114 8.61494 
45 1 4.61215 5.56029 22.062 
55 1 4.81647 5.58403 13.0826 
106 1 9.07771 4.85739 21.7837 
137 1 4.80551 5.58495 19.6869 
2 1 7.30137 10.4036 9.02265 
3 1 8.95532 7.66743 6.06458 
6 1 8.49659 6.40296 6.81189 
16 1 2.39282 8.70943 0.895233 
22 1 6.99482 6.15192 8.66675 
26 1 7.20426 8.37596 7.49995 
35 1 7.28986 10.423 10.443 
37 1 6.92621 9.16488 10.9868 
39 1 8.3082 8.93386 6.76475 
41 1 6.65572 6.93 9.83675 
48 1 3.66084 6.38494 0.90619 
61 1 7.29331 10.4212 1.60414 
62 1 8.95202 7.67083 4.54771 
64 1 6.72941 9.13969 2.0013 
68 1 7.3514 6.92956 3.08605 
71 1 4.39758 8.52606 10.7431 
74 1 3.65285 7.80285 9.78318 
81 1 8.49908 6.4044 3.80312 
83 1 6.54627 8.36594 0.786188 
93 1 7.29399 10.4187 0.161533 
97 1 8.30922 8.93205 3.84984 
101 1 2.49787 9.81982 10.6745 
103 1 2.46976 8.68931 9.75958 
117 1 6.99737 6.15041 1.94756 
120 1 7.20058 8.37628 3.11139 
123 1 3.69825 6.36781 9.82928 
129 1 6.65492 6.92881 0.776878 
132 1 6.7232 9.14821 8.6062 
135 1 7.35107 6.93092 7.52717 
141 1 7.1715 6.20359 10.9753 
144 1 6.53486 8.36577 9.83186 
148 1 3.62189 7.81056 0.853255 
7 1 9.13916 6.01165 11.9716 
10 1 3.78691 9.78597 21.5998 
13 1 2.4562 9.87189 22.058 
15 1 3.03528 8.31959 17.8844 
28 1 3.80297 9.77572 20.1335 
30 1 4.53809 8.57075 19.7428 
34 1 4.33215 6.34832 18.5786 
40 1 7.87173 8.34228 11.9814 
49 1 4.88278 7.79328 20.9089 
50 1 2.10187 9.24022 18.5309 
58 1 1.64848 10.0205 11.8356 
59 1 4.18506 7.79492 14.1736 
69 1 3.86255 9.82394 11.1716 