
     Program PWSCF v.7.1 starts on 24May2025 at 17:52:36 

     This program is part of the open-source Quantum ESPRESSO suite
     for quantum simulation of materials; please cite
         "P. Giannozzi et al., J. Phys.:Condens. Matter 21 395502 (2009);
         "P. Giannozzi et al., J. Phys.:Condens. Matter 29 465901 (2017);
         "P. Giannozzi et al., J. Chem. Phys. 152 154105 (2020);
          URL http://www.quantum-espresso.org", 
     in publications or presentations arising from this work. More details at
     http://www.quantum-espresso.org/quote

     Parallel version (MPI), running on    16 processors

     MPI processes distributed on     1 nodes
     155117 MiB available memory on the printing compute node when the environment starts

     Reading input from input.pwi
Warning: card &CELL ignored
Warning: card / ignored
Warning: card &FCP ignored
Warning: card / ignored
Warning: card &RISM ignored
Warning: card / ignored

     Current dimensions of program PWSCF are:
     Max number of different atomic species (ntypx) = 10
     Max number of k-points (npk) =  40000
     Max angular momentum in pseudopotentials (lmaxx) =  4
     file C.pbe-n-kjpaw_psl.1.0.0.UPF: wavefunction(s)  2S 2P renormalized
     file O.pbe-n-kjpaw_psl.0.1.UPF: wavefunction(s)  2P renormalized

     IMPORTANT: XC functional enforced from input :
     Exchange-correlation= PBE
                           (   1   4   3   4   0   0   0)
     Any further DFT definition will be discarded
     Please, verify this is what you really want


     gamma-point specific algorithms are used

     R & G space division:  proc/nbgrp/npool/nimage =      16
     Subspace diagonalization in iterative solution of the eigenvalue problem:
     one sub-group per band group will be used
     custom distributed-memory algorithm (size of sub-group:  2*  2 procs)


     Parallelization info
     --------------------
     sticks:   dense  smooth     PW     G-vecs:    dense   smooth      PW
     Min        1311     656    161               143332    50692    6325
     Max        1314     658    164               143346    50702    6336
     Sum       21001   10501   2617              2293379   811111  101313

     Using Slab Decomposition



     bravais-lattice index     =            0
     lattice parameter (alat)  =      25.7003  a.u.
     unit-cell volume          =   16975.1385 (a.u.)^3
     number of atoms/cell      =           73
     number of atomic types    =            2
     number of electrons       =       294.00 (up: 147.00, down: 147.00)
     number of Kohn-Sham states=          176
     kinetic-energy cutoff     =      50.0000  Ry
     charge density cutoff     =     400.0000  Ry
     scf convergence threshold =      1.0E-06
     mixing beta               =       0.3000
     number of iterations used =            8  plain     mixing
     energy convergence thresh.=      1.0E-04
     force convergence thresh. =      1.0E-03
     Exchange-correlation= PBE
                           (   1   4   3   4   0   0   0)
     nstep                     =         1000


     celldm(1)=  25.700275  celldm(2)=   0.000000  celldm(3)=   0.000000
     celldm(4)=   0.000000  celldm(5)=   0.000000  celldm(6)=   0.000000

     crystal axes: (cart. coord. in units of alat)
               a(1) = (   1.000000   0.000000   0.000000 )  
               a(2) = (   0.000000   1.000000   0.000000 )  
               a(3) = (   0.000000   0.000000   1.000000 )  

     reciprocal axes: (cart. coord. in units 2 pi/alat)
               b(1) = (  1.000000  0.000000  0.000000 )  
               b(2) = (  0.000000  1.000000  0.000000 )  
               b(3) = (  0.000000  0.000000  1.000000 )  


     PseudoPot. # 1 for C  read from file:
     /home/ana.bisette/espresso/pseudo/C.pbe-n-kjpaw_psl.1.0.0.UPF
     MD5 check sum: 5d2aebdfa2cae82b50a7e79e9516da0f
     Pseudo is Projector augmented-wave + core cor, Zval =  4.0
     Generated using "atomic" code by A. Dal Corso  v.5.1
     Shape of augmentation charge: PSQ
     Using radial grid of 1073 points,  4 beta functions with: 
                l(1) =   0
                l(2) =   0
                l(3) =   1
                l(4) =   1
     Q(r) pseudized with 0 coefficients 


     PseudoPot. # 2 for O  read from file:
     /home/ana.bisette/espresso/pseudo/O.pbe-n-kjpaw_psl.0.1.UPF
     MD5 check sum: 0234752ac141de4415c5fc33072bef88
     Pseudo is Projector augmented-wave + core cor, Zval =  6.0
     Generated using "atomic" code by A. Dal Corso  v.5.0.99 svn rev. 10869
     Shape of augmentation charge: BESSEL
     Using radial grid of 1095 points,  4 beta functions with: 
                l(1) =   0
                l(2) =   0
                l(3) =   1
                l(4) =   1
     Q(r) pseudized with 0 coefficients 


     atomic species   valence    mass     pseudopotential
        C              4.00    12.01100     C ( 1.00)
        O              6.00    15.99900     O ( 1.00)

     Starting magnetic structure 
     atomic species   magnetization
        C            0.000
        O            0.000

     No symmetry found



   Cartesian axes

     site n.     atom                  positions (alat units)
         1           C   tau(   1) = (   0.4905882   0.0648529   0.5648529  )
         2           C   tau(   2) = (   0.4906618   0.1394118   0.6394118  )
         3           C   tau(   3) = (   0.4905882   0.2031618   0.7031618  )
         4           C   tau(   4) = (  -0.0093382   0.4163235   0.5649265  )
         5           C   tau(   5) = (   0.9905882   0.3418382   0.6394118  )
         6           C   tau(   6) = (   0.9905147   0.2780147   0.7031618  )
         7           C   tau(   7) = (   0.4906618   0.4163971   0.9163971  )
         8           C   tau(   8) = (   0.4905882   0.3419118   0.8418382  )
         9           C   tau(   9) = (   0.4905882   0.2781618   0.7780882  )
        10           C   tau(  10) = (  -0.0093382   0.0649265   0.9163235  )
        11           C   tau(  11) = (  -0.0093382   0.1394118   0.8418382  )
        12           C   tau(  12) = (   0.9905882   0.2031618   0.7780882  )
        13           C   tau(  13) = (   0.5648529   0.4905882   0.0648529  )
        14           C   tau(  14) = (   0.6394118   0.4906618   0.1394118  )
        15           C   tau(  15) = (   0.7031618   0.4905882   0.2031618  )
        16           C   tau(  16) = (   0.5649265  -0.0093382   0.4163235  )
        17           C   tau(  17) = (   0.6394118   0.9905882   0.3418382  )
        18           C   tau(  18) = (   0.7031618   0.9905147   0.2780147  )
        19           C   tau(  19) = (   0.9163971   0.4906618   0.4163971  )
        20           C   tau(  20) = (   0.8418382   0.4905882   0.3419118  )
        21           C   tau(  21) = (   0.7780882   0.4905882   0.2781618  )
        22           C   tau(  22) = (   0.9163235  -0.0093382   0.0648529  )
        23           C   tau(  23) = (   0.8418382  -0.0093382   0.1394118  )
        24           C   tau(  24) = (   0.7780882   0.9905882   0.2031618  )
        25           C   tau(  25) = (   0.0648529   0.5648529   0.4905882  )
        26           C   tau(  26) = (   0.1394118   0.6394118   0.4906618  )
        27           C   tau(  27) = (   0.2031618   0.7031618   0.4905882  )
        28           C   tau(  28) = (   0.4163235   0.5649265  -0.0093382  )
        29           C   tau(  29) = (   0.3418382   0.6394118   0.9905882  )
        30           C   tau(  30) = (   0.2780147   0.7031618   0.9905147  )
        31           C   tau(  31) = (   0.4163971   0.9163971   0.4906618  )
        32           C   tau(  32) = (   0.3419118   0.8418382   0.4905882  )
        33           C   tau(  33) = (   0.2781618   0.7780882   0.4905882  )
        34           C   tau(  34) = (   0.0648529   0.9163235  -0.0093382  )
        35           C   tau(  35) = (   0.1394118   0.8418382   0.9905882  )
        36           C   tau(  36) = (   0.2031618   0.7780882   0.9905882  )
        37           C   tau(  37) = (   0.4906618   0.9163971   0.4163971  )
        38           C   tau(  38) = (   0.4905882   0.8418382   0.3419118  )
        39           C   tau(  39) = (   0.4905882   0.7780882   0.2781618  )
        40           C   tau(  40) = (  -0.0093382   0.5649265   0.4163235  )
        41           C   tau(  41) = (   0.9905882   0.6394118   0.3418382  )
        42           C   tau(  42) = (   0.9905147   0.7031618   0.2780147  )
        43           C   tau(  43) = (   0.4905882   0.5648529   0.0648529  )
        44           C   tau(  44) = (   0.4906618   0.6394118   0.1394118  )
        45           C   tau(  45) = (   0.4905882   0.7031618   0.2031618  )
        46           C   tau(  46) = (  -0.0093382   0.9163235   0.0648529  )
        47           C   tau(  47) = (  -0.0093382   0.8418382   0.1394118  )
        48           C   tau(  48) = (   0.9905882   0.7780882   0.2031618  )
        49           C   tau(  49) = (   0.4163971   0.4906618   0.9163971  )
        50           C   tau(  50) = (   0.3419118   0.4905882   0.8418382  )
        51           C   tau(  51) = (   0.2781618   0.4905882   0.7780882  )
        52           C   tau(  52) = (   0.4163235  -0.0093382   0.5649265  )
        53           C   tau(  53) = (   0.3418382   0.9905882   0.6394118  )
        54           C   tau(  54) = (   0.2780147   0.9905882   0.7031618  )
        55           C   tau(  55) = (   0.0648529   0.4905882   0.5648529  )
        56           C   tau(  56) = (   0.1394118   0.4906618   0.6394118  )
        57           C   tau(  57) = (   0.2031618   0.4905882   0.7031618  )
        58           C   tau(  58) = (   0.0648529   0.9905882   0.9163235  )
        59           C   tau(  59) = (   0.1394118   0.9905882   0.8418382  )
        60           C   tau(  60) = (   0.2031618   0.9905882   0.7780882  )
        61           C   tau(  61) = (   0.9163971   0.4163971   0.4906618  )
        62           C   tau(  62) = (   0.8418382   0.3419118   0.4905882  )
        63           C   tau(  63) = (   0.7780882   0.2781618   0.4905882  )
        64           C   tau(  64) = (   0.5649265   0.4163235  -0.0093382  )
        65           C   tau(  65) = (   0.6394118   0.3418382   0.9905882  )
        66           C   tau(  66) = (   0.7031618   0.2780147   0.9905147  )
        67           C   tau(  67) = (   0.5648529   0.0648529   0.4905882  )
        68           C   tau(  68) = (   0.6394118   0.1394118   0.4906618  )
        69           C   tau(  69) = (   0.7031618   0.2031618   0.4905882  )
        70           C   tau(  70) = (   0.9163235   0.0649265  -0.0093382  )
        71           C   tau(  71) = (   0.8418382   0.1394118  -0.0093382  )
        72           C   tau(  72) = (   0.7780882   0.2031618   0.9905882  )
        73           O   tau(  73) = (   0.5120588   0.0790441   0.7156618  )

     number of k points=     1  Gaussian smearing, width (Ry)=  0.0001
                       cart. coord. in units 2pi/alat
        k(    1) = (   0.0000000   0.0000000   0.0000000), wk =   1.0000000

     Dense  grid:  1146690 G-vectors     FFT dimensions: ( 180, 180, 180)

     Smooth grid:   405556 G-vectors     FFT dimensions: ( 120, 120, 120)

     Estimated max dynamical RAM per process >     431.95 MB

     Estimated total dynamical RAM >       6.75 GB

     Check: negative core charge=   -0.000003
     Generating pointlists ...
     new r_m :   0.0372 (alat units)  0.9558 (a.u.) for type    1
     new r_m :   0.0411 (alat units)  1.0557 (a.u.) for type    2

     Initial potential from superposition of free atoms

     starting charge     293.9970, renormalised to     294.0000

     negative rho (up, down):  6.236E-05 6.236E-05
     Starting wfcs are  292 randomized atomic wfcs
     Checking if some PAW data can be deallocated... 

     total cpu time spent up to now is        6.2 secs

     Self-consistent Calculation

     iteration #  1     ecut=    50.00 Ry     beta= 0.30
     Davidson diagonalization with overlap
     ethr =  1.00E-02,  avg # of iterations =  2.0

     negative rho (up, down):  7.759E-05 7.767E-05

     total cpu time spent up to now is       14.4 secs

     total energy              =   -1365.97856658 Ry
     estimated scf accuracy    <       8.22097118 Ry

     total magnetization       =     0.00 Bohr mag/cell
     absolute magnetization    =     0.08 Bohr mag/cell

     iteration #  2     ecut=    50.00 Ry     beta= 0.30
     Davidson diagonalization with overlap
     ethr =  2.80E-03,  avg # of iterations =  1.0

     negative rho (up, down):  2.601E-04 2.603E-04

     total cpu time spent up to now is       20.6 secs

     total energy              =   -1364.47639616 Ry
     estimated scf accuracy    <       2.83093840 Ry

     total magnetization       =     0.00 Bohr mag/cell
     absolute magnetization    =     0.06 Bohr mag/cell

     iteration #  3     ecut=    50.00 Ry     beta= 0.30
     Davidson diagonalization with overlap
     ethr =  9.63E-04,  avg # of iterations =  2.0

     negative rho (up, down):  2.207E-04 2.208E-04

     total cpu time spent up to now is       28.3 secs

     total energy              =   -1365.06366831 Ry
     estimated scf accuracy    <       0.25730090 Ry

     total magnetization       =    -0.00 Bohr mag/cell
     absolute magnetization    =     0.04 Bohr mag/cell

     iteration #  4     ecut=    50.00 Ry     beta= 0.30
     Davidson diagonalization with overlap
     ethr =  8.75E-05,  avg # of iterations =  2.0

     negative rho (up, down):  2.136E-04 2.137E-04

     total cpu time spent up to now is       34.9 secs

     total energy              =   -1365.07259429 Ry
     estimated scf accuracy    <       0.06467857 Ry

     total magnetization       =    -0.00 Bohr mag/cell
     absolute magnetization    =     0.03 Bohr mag/cell

     iteration #  5     ecut=    50.00 Ry     beta= 0.30
     Davidson diagonalization with overlap
     ethr =  2.20E-05,  avg # of iterations =  2.0

     negative rho (up, down):  2.520E-04 2.521E-04

     total cpu time spent up to now is       42.0 secs

     total energy              =   -1365.07813408 Ry
     estimated scf accuracy    <       0.02052947 Ry

     total magnetization       =     0.00 Bohr mag/cell
     absolute magnetization    =     0.03 Bohr mag/cell

     iteration #  6     ecut=    50.00 Ry     beta= 0.30
     Davidson diagonalization with overlap
     ethr =  6.98E-06,  avg # of iterations = 17.0

     negative rho (up, down):  2.813E-04 2.813E-04

     total cpu time spent up to now is       50.3 secs

     total energy              =   -1365.07829573 Ry
     estimated scf accuracy    <       0.00533492 Ry

     total magnetization       =     0.00 Bohr mag/cell
     absolute magnetization    =     0.02 Bohr mag/cell

     iteration #  7     ecut=    50.00 Ry     beta= 0.30
     Davidson diagonalization with overlap
     ethr =  1.81E-06,  avg # of iterations =  5.0

     negative rho (up, down):  2.877E-04 2.877E-04

     total cpu time spent up to now is       57.9 secs

     total energy              =   -1365.07891314 Ry
     estimated scf accuracy    <       0.00113399 Ry

     total magnetization       =     0.00 Bohr mag/cell
     absolute magnetization    =     0.02 Bohr mag/cell

     iteration #  8     ecut=    50.00 Ry     beta= 0.30
     Davidson diagonalization with overlap
     ethr =  3.86E-07,  avg # of iterations =  2.0

     negative rho (up, down):  2.856E-04 2.856E-04

     total cpu time spent up to now is       64.5 secs

     total energy              =   -1365.07886423 Ry
     estimated scf accuracy    <       0.00030738 Ry

     total magnetization       =     0.00 Bohr mag/cell
     absolute magnetization    =     0.01 Bohr mag/cell

     iteration #  9     ecut=    50.00 Ry     beta= 0.30
     Davidson diagonalization with overlap
     ethr =  1.05E-07,  avg # of iterations =  2.0

     negative rho (up, down):  2.852E-04 2.852E-04

     total cpu time spent up to now is       72.1 secs

     total energy              =   -1365.07892303 Ry
     estimated scf accuracy    <       0.00002866 Ry

     total magnetization       =     0.00 Bohr mag/cell
     absolute magnetization    =     0.01 Bohr mag/cell

     iteration # 10     ecut=    50.00 Ry     beta= 0.30
     Davidson diagonalization with overlap
     ethr =  9.75E-09,  avg # of iterations =  2.0

     negative rho (up, down):  2.851E-04 2.851E-04

     total cpu time spent up to now is       79.3 secs

     total energy              =   -1365.07892454 Ry
     estimated scf accuracy    <       0.00001197 Ry

     total magnetization       =    -0.00 Bohr mag/cell
     absolute magnetization    =     0.01 Bohr mag/cell

     iteration # 11     ecut=    50.00 Ry     beta= 0.30
     Davidson diagonalization with overlap
     ethr =  4.07E-09,  avg # of iterations =  2.0

     negative rho (up, down):  2.846E-04 2.846E-04

     total cpu time spent up to now is       86.4 secs

     total energy              =   -1365.07892614 Ry
     estimated scf accuracy    <       0.00000158 Ry

     total magnetization       =     0.00 Bohr mag/cell
     absolute magnetization    =     0.01 Bohr mag/cell

     iteration # 12     ecut=    50.00 Ry     beta= 0.30
     Davidson diagonalization with overlap
     ethr =  5.38E-10,  avg # of iterations =  4.0

     negative rho (up, down):  2.844E-04 2.844E-04

     Magnetic moment per site  (integrated on atomic sphere of radius R)
     atom   1 (R=0.037)  charge=  1.1622  magn= -0.0000
     atom   2 (R=0.037)  charge=  1.2193  magn=  0.0000
     atom   3 (R=0.037)  charge=  1.1669  magn= -0.0000
     atom   4 (R=0.037)  charge=  1.1560  magn=  0.0000
     atom   5 (R=0.037)  charge=  1.1824  magn=  0.0000
     atom   6 (R=0.037)  charge=  1.1660  magn= -0.0000
     atom   7 (R=0.037)  charge=  1.1555  magn=  0.0000
     atom   8 (R=0.037)  charge=  1.1806  magn= -0.0000
     atom   9 (R=0.037)  charge=  1.1662  magn=  0.0000
     atom  10 (R=0.037)  charge=  1.1556  magn=  0.0000
     atom  11 (R=0.037)  charge=  1.1826  magn= -0.0000
     atom  12 (R=0.037)  charge=  1.1668  magn=  0.0000
     atom  13 (R=0.037)  charge=  1.1559  magn=  0.0000
     atom  14 (R=0.037)  charge=  1.1813  magn= -0.0000
     atom  15 (R=0.037)  charge=  1.1666  magn=  0.0000
     atom  16 (R=0.037)  charge=  1.1559  magn= -0.0000
     atom  17 (R=0.037)  charge=  1.1823  magn=  0.0000
     atom  18 (R=0.037)  charge=  1.1661  magn=  0.0000
     atom  19 (R=0.037)  charge=  1.1550  magn=  0.0000
     atom  20 (R=0.037)  charge=  1.1829  magn=  0.0000
     atom  21 (R=0.037)  charge=  1.1651  magn= -0.0000
     atom  22 (R=0.037)  charge=  1.1556  magn=  0.0000
     atom  23 (R=0.037)  charge=  1.1825  magn= -0.0000
     atom  24 (R=0.037)  charge=  1.1667  magn=  0.0000
     atom  25 (R=0.037)  charge=  1.1559  magn=  0.0000
     atom  26 (R=0.037)  charge=  1.1815  magn= -0.0000
     atom  27 (R=0.037)  charge=  1.1665  magn=  0.0000
     atom  28 (R=0.037)  charge=  1.1559  magn=  0.0000
     atom  29 (R=0.037)  charge=  1.1824  magn=  0.0000
     atom  30 (R=0.037)  charge=  1.1660  magn= -0.0000
     atom  31 (R=0.037)  charge=  1.1546  magn= -0.0000
     atom  32 (R=0.037)  charge=  1.1827  magn=  0.0001
     atom  33 (R=0.037)  charge=  1.1651  magn= -0.0001
     atom  34 (R=0.037)  charge=  1.1560  magn= -0.0000
     atom  35 (R=0.037)  charge=  1.1825  magn=  0.0000
     atom  36 (R=0.037)  charge=  1.1667  magn= -0.0000
     atom  37 (R=0.037)  charge=  1.1551  magn=  0.0000
     atom  38 (R=0.037)  charge=  1.1828  magn= -0.0000
     atom  39 (R=0.037)  charge=  1.1652  magn=  0.0000
     atom  40 (R=0.037)  charge=  1.1560  magn= -0.0000
     atom  41 (R=0.037)  charge=  1.1824  magn=  0.0000
     atom  42 (R=0.037)  charge=  1.1661  magn= -0.0000
     atom  43 (R=0.037)  charge=  1.1558  magn= -0.0000
     atom  44 (R=0.037)  charge=  1.1815  magn=  0.0000
     atom  45 (R=0.037)  charge=  1.1664  magn= -0.0000
     atom  46 (R=0.037)  charge=  1.1558  magn= -0.0000
     atom  47 (R=0.037)  charge=  1.1825  magn= -0.0000
     atom  48 (R=0.037)  charge=  1.1667  magn=  0.0000
     atom  49 (R=0.037)  charge=  1.1550  magn= -0.0000
     atom  50 (R=0.037)  charge=  1.1830  magn= -0.0000
     atom  51 (R=0.037)  charge=  1.1651  magn=  0.0000
     atom  52 (R=0.037)  charge=  1.1556  magn=  0.0000
     atom  53 (R=0.037)  charge=  1.1823  magn= -0.0000
     atom  54 (R=0.037)  charge=  1.1665  magn=  0.0001
     atom  55 (R=0.037)  charge=  1.1560  magn= -0.0000
     atom  56 (R=0.037)  charge=  1.1813  magn= -0.0000
     atom  57 (R=0.037)  charge=  1.1667  magn=  0.0000
     atom  58 (R=0.037)  charge=  1.1554  magn= -0.0000
     atom  59 (R=0.037)  charge=  1.1828  magn=  0.0000
     atom  60 (R=0.037)  charge=  1.1664  magn= -0.0000
     atom  61 (R=0.037)  charge=  1.1551  magn= -0.0000
     atom  62 (R=0.037)  charge=  1.1828  magn=  0.0000
     atom  63 (R=0.037)  charge=  1.1653  magn= -0.0000
     atom  64 (R=0.037)  charge=  1.1559  magn= -0.0000
     atom  65 (R=0.037)  charge=  1.1826  magn= -0.0000
     atom  66 (R=0.037)  charge=  1.1659  magn=  0.0000
     atom  67 (R=0.037)  charge=  1.1566  magn=  0.0000
     atom  68 (R=0.037)  charge=  1.1820  magn= -0.0001
     atom  69 (R=0.037)  charge=  1.1667  magn=  0.0001
     atom  70 (R=0.037)  charge=  1.1557  magn= -0.0000
     atom  71 (R=0.037)  charge=  1.1826  magn=  0.0000
     atom  72 (R=0.037)  charge=  1.1667  magn= -0.0000
     atom  73 (R=0.041)  charge=  3.5126  magn=  0.0001

     total cpu time spent up to now is       94.0 secs

     End of self-consistent calculation

 ------ SPIN UP ------------


          k = 0.0000 0.0000 0.0000 ( 50657 PWs)   bands (ev):

   -24.7550 -20.4320 -20.4171 -20.3862 -20.3702 -18.6613 -18.6561 -18.6331
   -18.6238 -18.5867 -18.5383 -18.5330 -18.4619 -17.5539 -17.5299 -17.5013
   -17.4828 -17.4154 -17.3436 -17.3110 -17.1292 -17.0431 -17.0057 -16.8531
   -16.7843 -16.7587 -16.7534 -16.6109 -16.4340 -16.4072 -16.2132 -16.0185
   -15.9434 -15.8592 -15.6302 -15.4947 -15.4841 -15.0632 -15.0274 -14.8471
   -14.7966 -14.7679 -14.2461 -14.0805 -14.0765 -13.7426 -13.4496 -13.0840
   -13.0169 -12.9065 -12.8896 -12.8800 -12.8651 -12.5351 -12.4453 -12.0547
   -11.8718 -11.7411 -11.5955 -11.5648 -11.5142 -11.4559 -11.4327 -11.2325
   -10.8619 -10.7499 -10.6360 -10.6214 -10.5929 -10.3381 -10.1658 -10.1586
    -9.9901  -9.8699  -9.8633  -9.7971  -9.7694  -8.8413  -8.7190  -8.5446
    -8.5203  -8.5067  -8.4902  -8.4624  -8.4580  -8.4537  -8.4057  -8.3858
    -8.3743  -8.1960  -7.7799  -7.0617  -7.0554  -7.0030  -6.9694  -6.9402
    -6.9164  -6.9059  -6.8911  -6.3339  -6.3100  -6.2919  -6.2764  -6.2637
    -6.2429  -6.2406  -6.2059  -6.2017  -6.1766  -6.0823  -6.0235  -5.9946
    -5.8873  -5.8663  -5.8001  -5.7584  -5.6351  -5.4973  -5.4242  -5.4169
    -5.4109  -5.2518  -5.1418  -4.7926  -4.6184  -4.6090  -4.5905  -4.5359
    -4.3626  -4.3238  -4.3167  -4.2887  -4.2762  -4.2030  -4.0065  -3.9162
    -3.8980  -3.8637  -3.6810  -3.6728  -3.6053  -3.3868  -3.2148  -3.1091
    -3.1055  -3.0399  -2.7464  -1.2570  -1.2450  -1.1607  -1.0523  -0.9341
    -0.8147  -0.7408  -0.6950  -0.2651  -0.1421  -0.1084   0.1272   0.6300
     0.6847   0.7474   0.7841   0.8778   0.9088   0.9994   1.2086   1.2176
     1.3873   1.4458   1.4813   1.6587   1.8747   1.9154   1.9478   2.1796

 ------ SPIN DOWN ----------


          k = 0.0000 0.0000 0.0000 ( 50657 PWs)   bands (ev):

   -24.7549 -20.4320 -20.4171 -20.3862 -20.3702 -18.6613 -18.6562 -18.6331
   -18.6239 -18.5867 -18.5383 -18.5330 -18.4619 -17.5539 -17.5299 -17.5013
   -17.4827 -17.4154 -17.3435 -17.3110 -17.1292 -17.0431 -17.0057 -16.8531
   -16.7842 -16.7587 -16.7534 -16.6109 -16.4340 -16.4072 -16.2132 -16.0185
   -15.9434 -15.8592 -15.6302 -15.4947 -15.4841 -15.0631 -15.0274 -14.8471
   -14.7966 -14.7679 -14.2461 -14.0805 -14.0765 -13.7425 -13.4496 -13.0840
   -13.0169 -12.9065 -12.8896 -12.8800 -12.8651 -12.5351 -12.4453 -12.0547
   -11.8718 -11.7411 -11.5955 -11.5648 -11.5142 -11.4559 -11.4327 -11.2325
   -10.8619 -10.7500 -10.6360 -10.6213 -10.5929 -10.3381 -10.1658 -10.1586
    -9.9901  -9.8699  -9.8633  -9.7971  -9.7694  -8.8414  -8.7190  -8.5446
    -8.5203  -8.5068  -8.4902  -8.4624  -8.4580  -8.4537  -8.4057  -8.3858
    -8.3743  -8.1960  -7.7798  -7.0617  -7.0554  -7.0030  -6.9694  -6.9402
    -6.9164  -6.9060  -6.8911  -6.3338  -6.3100  -6.2919  -6.2764  -6.2637
    -6.2429  -6.2406  -6.2059  -6.2017  -6.1766  -6.0823  -6.0235  -5.9946
    -5.8873  -5.8663  -5.8001  -5.7584  -5.6351  -5.4973  -5.4242  -5.4169
    -5.4109  -5.2517  -5.1418  -4.7925  -4.6185  -4.6090  -4.5906  -4.5359
    -4.3626  -4.3238  -4.3167  -4.2887  -4.2762  -4.2029  -4.0065  -3.9162
    -3.8981  -3.8637  -3.6810  -3.6728  -3.6052  -3.3868  -3.2148  -3.1091
    -3.1055  -3.0398  -2.7465  -1.2570  -1.2449  -1.1607  -1.0523  -0.9340
    -0.8147  -0.7408  -0.6949  -0.2652  -0.1421  -0.1084   0.1272   0.6299
     0.6847   0.7474   0.7841   0.8779   0.9088   0.9994   1.2086   1.2176
     1.3873   1.4458   1.4814   1.6587   1.8747   1.9155   1.9478   2.1796

     the spin up/dw Fermi energies are    -2.0196   -2.0196 ev

!    total energy              =   -1365.07892660 Ry
     total all-electron energy =     -5632.940862 Ry
     estimated scf accuracy    <       0.00000032 Ry
     smearing contrib. (-TS)   =      -0.00000000 Ry
     internal energy E=F+TS    =   -1365.07892660 Ry

     The total energy is F=E-TS. E is the sum of the following terms:
     one-electron contribution =   -2002.83537574 Ry
     hartree contribution      =    1061.05935729 Ry
     xc contribution           =    -334.61023210 Ry
     ewald contribution        =     364.94355614 Ry
     one-center paw contrib.   =    -453.63623219 Ry

     total magnetization       =     0.00 Bohr mag/cell
     absolute magnetization    =     0.01 Bohr mag/cell

     convergence has been achieved in  12 iterations

     negative rho (up, down):  2.844E-04 2.844E-04

     Forces acting on atoms (cartesian axes, Ry/au):

     atom    1 type  1   force =    -0.01555438    0.02221296   -0.13870740
     atom    2 type  1   force =     0.00342629   -0.21473001   -0.14696400
     atom    3 type  1   force =    -0.00261945    0.28897864    0.26347263
     atom    4 type  1   force =    -0.00074172   -0.01534393    0.01490421
     atom    5 type  1   force =     0.00013858    0.01253342   -0.01243221
     atom    6 type  1   force =     0.00019707   -0.08651706    0.08681452
     atom    7 type  1   force =    -0.00045768   -0.02188357   -0.02171672
     atom    8 type  1   force =    -0.00000645    0.02925366    0.03057148
     atom    9 type  1   force =    -0.00191141   -0.10838795   -0.12330382
     atom   10 type  1   force =    -0.00115546    0.01470778   -0.01355185
     atom   11 type  1   force =    -0.00005928   -0.01432625    0.01433011
     atom   12 type  1   force =    -0.00020109    0.08832031   -0.08843302
     atom   13 type  1   force =     0.01747707   -0.00164770    0.01464622
     atom   14 type  1   force =    -0.01498671   -0.00032118   -0.01518601
     atom   15 type  1   force =     0.08888477    0.00005754    0.08906081
     atom   16 type  1   force =     0.01854144   -0.00908867   -0.01344861
     atom   17 type  1   force =    -0.01311680   -0.00048167    0.01363488
     atom   18 type  1   force =     0.08724514    0.00037492   -0.08701613
     atom   19 type  1   force =    -0.01557803   -0.00040746   -0.01537037
     atom   20 type  1   force =     0.01448354    0.00011211    0.01440282
     atom   21 type  1   force =    -0.08896028    0.00000684   -0.08913366
     atom   22 type  1   force =    -0.01447312   -0.00123311    0.01604091
     atom   23 type  1   force =     0.01480568   -0.00010518   -0.01499964
     atom   24 type  1   force =    -0.08869422   -0.00019421    0.08854321
     atom   25 type  1   force =     0.01705065    0.01651232    0.00061646
     atom   26 type  1   force =    -0.01509997   -0.01505044   -0.00030784
     atom   27 type  1   force =     0.08926647    0.08894023   -0.00003542
     atom   28 type  1   force =    -0.01649572    0.01303141   -0.00304398
     atom   29 type  1   force =     0.01255500   -0.01259572   -0.00001716
     atom   30 type  1   force =    -0.08632306    0.08663141    0.00021985
     atom   31 type  1   force =    -0.01204147   -0.01338579    0.00126365
     atom   32 type  1   force =     0.01403344    0.01527980    0.00076849
     atom   33 type  1   force =    -0.08894678   -0.08876638   -0.00013956
     atom   34 type  1   force =     0.01620093   -0.01487994   -0.00160416
     atom   35 type  1   force =    -0.01467221    0.01449871    0.00011357
     atom   36 type  1   force =     0.08821761   -0.08832137   -0.00023970
     atom   37 type  1   force =     0.00118803   -0.01507615   -0.01715910
     atom   38 type  1   force =    -0.00010200    0.01572044    0.01471821
     atom   39 type  1   force =     0.00002291   -0.09039376   -0.09055597
     atom   40 type  1   force =    -0.00090754    0.01478989   -0.01536409
     atom   41 type  1   force =     0.00008339   -0.01244536    0.01245643
     atom   42 type  1   force =     0.00020079    0.08671819   -0.08639323
     atom   43 type  1   force =     0.00052475    0.01903142    0.01948487
     atom   44 type  1   force =    -0.00029419   -0.01746966   -0.01737727
     atom   45 type  1   force =     0.00003155    0.09096914    0.09116779
     atom   46 type  1   force =    -0.00190838   -0.01430586    0.01633155
     atom   47 type  1   force =    -0.00026119    0.01469159   -0.01470931
     atom   48 type  1   force =    -0.00019102   -0.08838589    0.08825821
     atom   49 type  1   force =    -0.01879122    0.00260718   -0.01475697
     atom   50 type  1   force =     0.01560014    0.00024751    0.01544760
     atom   51 type  1   force =    -0.08975683   -0.00007093   -0.08967144
     atom   52 type  1   force =    -0.01489240    0.00623494    0.01948864
     atom   53 type  1   force =     0.00662064   -0.00028858   -0.01191421
     atom   54 type  1   force =    -0.08775787   -0.00054575    0.08470790
     atom   55 type  1   force =     0.01671926    0.00070180    0.01621007
     atom   56 type  1   force =    -0.01536442   -0.00040484   -0.01517424
     atom   57 type  1   force =     0.08948198   -0.00007443    0.08940096
     atom   58 type  1   force =     0.01620959    0.00005367   -0.01577014
     atom   59 type  1   force =    -0.01567583   -0.00019506    0.01559459
     atom   60 type  1   force =     0.08937181   -0.00028131   -0.08920920
     atom   61 type  1   force =    -0.01577705   -0.01540634   -0.00063728
     atom   62 type  1   force =     0.01457468    0.01453577    0.00018286
     atom   63 type  1   force =    -0.08866676   -0.08915830    0.00005303
     atom   64 type  1   force =     0.01835389   -0.01450118    0.00245510
     atom   65 type  1   force =    -0.01342642    0.01318388    0.00036501
     atom   66 type  1   force =     0.08717525   -0.08701225    0.00012476
     atom   67 type  1   force =     0.00508175    0.01711188    0.00529717
     atom   68 type  1   force =    -0.01588780   -0.01120634   -0.00147115
     atom   69 type  1   force =     0.08929104    0.08918603    0.00020970
     atom   70 type  1   force =    -0.01354051    0.01514116   -0.00138272
     atom   71 type  1   force =     0.01408362   -0.01428827    0.00001966
     atom   72 type  1   force =    -0.08857779    0.08852022   -0.00028645
     atom   73 type  2   force =     0.02673577   -0.00171893    0.12610611

     Total force =     0.807148     Total SCF correction =     0.000688

     BFGS Geometry Optimization
     Energy error            =      0.0E+00 Ry
     Gradient error          =      2.9E-01 Ry/Bohr

     number of scf cycles    =   1
     number of bfgs steps    =   0

     energy             new  =   -1365.0789266002 Ry

     new trust radius        =       0.3910669335 bohr
     new conv_thr            =       0.0000010000 Ry


ATOMIC_POSITIONS (angstrom)
C             6.6637689782        0.8937545942        7.6085992055
C             6.6748131128        1.7823697743        8.6182299995
C             6.6706138481        2.9159209121        9.7024237138
C            -0.1273925024        5.6538803393        7.6908869663
C            13.4720733333        4.6556323992        8.6894211582
C            13.4711042866        3.7352171459        9.6089402664
C             6.6727578053        5.6514197152       12.4515080062
C             6.6719965890        4.6654803719       11.4651777295
C             6.6709885233        3.7256435664       10.5167504300
C            -0.1276114451        0.8907830219       12.4548286686
C            -0.1270313722        1.8884188726       11.4565831686
C            13.4718935897        2.8097370945       10.5352032620
C             7.6912484681        6.6711280746        0.8897504477
C             8.6880693730        6.6728300375        1.8879639104
C             9.6100357931        6.6720304493        2.8101289489
C             7.6928117093       -0.1318095177        5.6548833005
C             8.6890588866       13.4717451120        4.6562152661
C             9.6091681405       13.4711983976        3.7349530490
C            12.4547564635        6.6727843798        5.6548663520
C            11.4566643616        6.6720593252        4.6576216426
C            10.5349242495        6.6720036198        3.7358324964
C            12.4543411538       -0.1276525329        0.8904884853
C            11.4568348275       -0.1270556567        1.8880625348
C            10.5350650386       13.4718972262        2.8098550487
C             0.8910228152        7.6907379433        6.6723262159
C             1.8880094403        8.6880356522        6.6728370995
C             2.8102377824        9.6100651411        6.6719812547
C             5.6532708396        7.6898959253       -0.1286108056
C             4.6556438192        8.6893346331       13.4719909196
C             3.7353198017        9.6088433661       13.4711163398
C             5.6566279259       12.4559165465        6.6736686931
C             4.6574261757       11.4570857235        6.6724066687
C             3.7359313914       10.5350268556        6.6719261461
C             0.8905731612       12.4541258762       -0.1278488862
C             1.8882358002       11.4566723859       13.4720601010
C             2.8096827505       10.5352623440       13.4718731536
C             6.6736286765       12.4550220433        5.6539197935
C             6.6719460255       11.4573189010        4.6577885390
C             6.6720121225       10.5341656835        3.7350798431
C            -0.1274802480        7.6908264744        5.6538696725
C            13.4720441282        8.6894141983        4.6555916598
C            13.4711062517        9.6088892885        3.7352826727
C             6.6722776883        7.6920709941        0.8923109494
C             6.6728443232        8.6867554561        1.8868043460
C             6.6720166940        9.6111387971        2.8112439156
C            -0.1280098708       12.4544296632        0.8906422834
C            -0.1271382141       11.4567744531        1.8882161679
C            13.4718989146       10.5352281995        2.8097042338
C             5.6530561158        6.6743796627       12.4551909457
C             4.6582552377        6.6721309793       11.4571745198
C             3.7355027297        6.6719624659       10.5345479200
C             5.6541192832       -0.1237006099        7.6933129447
C             4.6525034936       13.4718472897        8.6896952723
C             3.7345605335       13.4717111993        9.6078254883
C             0.8908474502        6.6723713789        7.6905779986
C             1.8878694973        6.6727857690        8.6879701357
C             2.8103518236        6.6719606108        9.6103089501
C             0.8905777458       13.4720284019       12.4536547995
C             1.8877047067       13.4718967783       11.4572523001
C             2.8102935275       13.4718511374       10.5347925262
C            12.4546511454        5.6548473180        6.6726627660
C            11.4567125862        4.6576919972        6.6720967669
C            10.5350795711        3.7358194569        6.6720280599
C             7.6927124596        5.6543263067       -0.1257008169
C             8.6888950470        4.6559766088       13.4721931574
C             9.6091311572        3.7349550989       13.4710660184
C             7.6846891459        0.8910552165        6.6748031400
C             8.6875925395        1.8900698589        6.6722215031
C             9.6102507832        2.8101952134        6.6721109697
C            12.4548346702        0.8910123577       -0.1277317023
C            11.4564527305        1.8884389713       -0.1269895968
C            10.5351266525        2.8098428840       13.4718484185
O             6.9781479606        1.0740903813        9.7997324810



     Writing config-only to output data dir ./pwscf.save/
     NEW-OLD atomic charge density approx. for the potential

     Check: negative core charge=   -0.000003

     negative rho (up, down):  2.736E-04 2.736E-04
     Generating pointlists ...
     new r_m :   0.0348 (alat units)  0.8952 (a.u.) for type    1

     total cpu time spent up to now is      100.8 secs

     Self-consistent Calculation

     iteration #  1     ecut=    50.00 Ry     beta= 0.30
     Davidson diagonalization with overlap
     ethr =  1.00E-06,  avg # of iterations = 19.0

     negative rho (up, down):  2.670E-04 2.670E-04

     total cpu time spent up to now is      123.4 secs

     total energy              =   -1364.69108717 Ry
     estimated scf accuracy    <       1.08438704 Ry

     total magnetization       =     0.00 Bohr mag/cell
     absolute magnetization    =     0.00 Bohr mag/cell

     iteration #  2     ecut=    50.00 Ry     beta= 0.30
     Davidson diagonalization with overlap
     ethr =  3.69E-04,  avg # of iterations =  2.0

     negative rho (up, down):  2.659E-04 2.659E-04

     total cpu time spent up to now is      130.4 secs

     total energy              =   -1364.78532126 Ry
     estimated scf accuracy    <       0.19694754 Ry

     total magnetization       =     0.00 Bohr mag/cell
     absolute magnetization    =     0.00 Bohr mag/cell

     iteration #  3     ecut=    50.00 Ry     beta= 0.30
     Davidson diagonalization with overlap
     ethr =  6.70E-05,  avg # of iterations =  2.0

     negative rho (up, down):  2.704E-04 2.704E-04

     total cpu time spent up to now is      137.2 secs

     total energy              =   -1364.77950902 Ry
     estimated scf accuracy    <       0.20218871 Ry

     total magnetization       =    -0.00 Bohr mag/cell
     absolute magnetization    =     0.00 Bohr mag/cell

     iteration #  4     ecut=    50.00 Ry     beta= 0.30
     Davidson diagonalization with overlap
     ethr =  6.70E-05,  avg # of iterations =  2.0

     negative rho (up, down):  2.647E-04 2.647E-04

     total cpu time spent up to now is      143.8 secs

     total energy              =   -1364.79071569 Ry
     estimated scf accuracy    <       0.08524453 Ry

     total magnetization       =     0.00 Bohr mag/cell
     absolute magnetization    =     0.00 Bohr mag/cell

     iteration #  5     ecut=    50.00 Ry     beta= 0.30
     Davidson diagonalization with overlap
     ethr =  2.90E-05,  avg # of iterations =  1.0

     negative rho (up, down):  2.643E-04 2.643E-04

     total cpu time spent up to now is      150.2 secs

     total energy              =   -1364.79657251 Ry
     estimated scf accuracy    <       0.01472978 Ry

     total magnetization       =    -0.00 Bohr mag/cell
     absolute magnetization    =     0.00 Bohr mag/cell

     iteration #  6     ecut=    50.00 Ry     beta= 0.30
     Davidson diagonalization with overlap
     ethr =  5.01E-06,  avg # of iterations =  2.0

     negative rho (up, down):  2.648E-04 2.648E-04

     total cpu time spent up to now is      157.4 secs

     total energy              =   -1364.79851630 Ry
     estimated scf accuracy    <       0.00289683 Ry

     total magnetization       =     0.00 Bohr mag/cell
     absolute magnetization    =     0.00 Bohr mag/cell

     iteration #  7     ecut=    50.00 Ry     beta= 0.30
     Davidson diagonalization with overlap
     ethr =  9.85E-07,  avg # of iterations = 11.0

     negative rho (up, down):  2.649E-04 2.649E-04

     total cpu time spent up to now is      165.7 secs

     total energy              =   -1364.79890436 Ry
     estimated scf accuracy    <       0.00050673 Ry

     total magnetization       =     0.00 Bohr mag/cell
     absolute magnetization    =     0.00 Bohr mag/cell

     iteration #  8     ecut=    50.00 Ry     beta= 0.30
     Davidson diagonalization with overlap
     ethr =  1.72E-07,  avg # of iterations =  4.0

     negative rho (up, down):  2.656E-04 2.656E-04

     total cpu time spent up to now is      173.4 secs

     total energy              =   -1364.79894847 Ry
     estimated scf accuracy    <       0.00033716 Ry

     total magnetization       =     0.00 Bohr mag/cell
     absolute magnetization    =     0.00 Bohr mag/cell

     iteration #  9     ecut=    50.00 Ry     beta= 0.30
     Davidson diagonalization with overlap
     ethr =  1.15E-07,  avg # of iterations =  2.0

     negative rho (up, down):  2.660E-04 2.660E-04

     total cpu time spent up to now is      180.2 secs

     total energy              =   -1364.79898732 Ry
     estimated scf accuracy    <       0.00005690 Ry

     total magnetization       =     0.00 Bohr mag/cell
     absolute magnetization    =     0.00 Bohr mag/cell

     iteration # 10     ecut=    50.00 Ry     beta= 0.30
     Davidson diagonalization with overlap
     ethr =  1.94E-08,  avg # of iterations =  2.0

     negative rho (up, down):  2.659E-04 2.659E-04

     total cpu time spent up to now is      186.7 secs

     total energy              =   -1364.79899269 Ry
     estimated scf accuracy    <       0.00001540 Ry

     total magnetization       =     0.00 Bohr mag/cell
     absolute magnetization    =     0.00 Bohr mag/cell

     iteration # 11     ecut=    50.00 Ry     beta= 0.30
     Davidson diagonalization with overlap
     ethr =  5.24E-09,  avg # of iterations =  4.0

     negative rho (up, down):  2.659E-04 2.659E-04

     total cpu time spent up to now is      193.4 secs

     total energy              =   -1364.79899505 Ry
     estimated scf accuracy    <       0.00000748 Ry

     total magnetization       =    -0.00 Bohr mag/cell
     absolute magnetization    =     0.00 Bohr mag/cell

     iteration # 12     ecut=    50.00 Ry     beta= 0.30
     Davidson diagonalization with overlap
     ethr =  2.54E-09,  avg # of iterations =  2.0

     negative rho (up, down):  2.658E-04 2.658E-04

     total cpu time spent up to now is      199.6 secs

     total energy              =   -1364.79899578 Ry
     estimated scf accuracy    <       0.00000154 Ry

     total magnetization       =     0.00 Bohr mag/cell
     absolute magnetization    =     0.00 Bohr mag/cell

     iteration # 13     ecut=    50.00 Ry     beta= 0.30
     Davidson diagonalization with overlap
     ethr =  5.23E-10,  avg # of iterations =  2.0

     negative rho (up, down):  2.658E-04 2.658E-04

     Magnetic moment per site  (integrated on atomic sphere of radius R)
     atom   1 (R=0.035)  charge=  1.0165  magn= -0.0000
     atom   2 (R=0.035)  charge=  0.9308  magn=  0.0000
     atom   3 (R=0.035)  charge=  1.0005  magn= -0.0000
     atom   4 (R=0.035)  charge=  0.9695  magn=  0.0000
     atom   5 (R=0.035)  charge=  0.9632  magn=  0.0000
     atom   6 (R=0.035)  charge=  0.9832  magn= -0.0000
     atom   7 (R=0.035)  charge=  0.9717  magn=  0.0000
     atom   8 (R=0.035)  charge=  0.9550  magn= -0.0000
     atom   9 (R=0.035)  charge=  1.0592  magn=  0.0000
     atom  10 (R=0.035)  charge=  0.9701  magn=  0.0000
     atom  11 (R=0.035)  charge=  0.9623  magn= -0.0000
     atom  12 (R=0.035)  charge=  0.9826  magn=  0.0000
     atom  13 (R=0.035)  charge=  0.9695  magn=  0.0000
     atom  14 (R=0.035)  charge=  0.9631  magn= -0.0000
     atom  15 (R=0.035)  charge=  0.9828  magn=  0.0000
     atom  16 (R=0.035)  charge=  0.9707  magn= -0.0000
     atom  17 (R=0.035)  charge=  0.9632  magn=  0.0000
     atom  18 (R=0.035)  charge=  0.9829  magn= -0.0000
     atom  19 (R=0.035)  charge=  0.9703  magn=  0.0000
     atom  20 (R=0.035)  charge=  0.9621  magn=  0.0000
     atom  21 (R=0.035)  charge=  0.9819  magn= -0.0000
     atom  22 (R=0.035)  charge=  0.9701  magn=  0.0000
     atom  23 (R=0.035)  charge=  0.9621  magn= -0.0000
     atom  24 (R=0.035)  charge=  0.9826  magn=  0.0000
     atom  25 (R=0.035)  charge=  0.9700  magn=  0.0000
     atom  26 (R=0.035)  charge=  0.9634  magn= -0.0000
     atom  27 (R=0.035)  charge=  0.9827  magn=  0.0000
     atom  28 (R=0.035)  charge=  0.9693  magn=  0.0000
     atom  29 (R=0.035)  charge=  0.9628  magn= -0.0000
     atom  30 (R=0.035)  charge=  0.9834  magn=  0.0000
     atom  31 (R=0.035)  charge=  0.9696  magn= -0.0000
     atom  32 (R=0.035)  charge=  0.9615  magn=  0.0000
     atom  33 (R=0.035)  charge=  0.9818  magn= -0.0000
     atom  34 (R=0.035)  charge=  0.9697  magn=  0.0000
     atom  35 (R=0.035)  charge=  0.9629  magn=  0.0000
     atom  36 (R=0.035)  charge=  0.9822  magn= -0.0000
     atom  37 (R=0.035)  charge=  0.9701  magn=  0.0000
     atom  38 (R=0.035)  charge=  0.9629  magn= -0.0000
     atom  39 (R=0.035)  charge=  0.9813  magn=  0.0000
     atom  40 (R=0.035)  charge=  0.9696  magn= -0.0000
     atom  41 (R=0.035)  charge=  0.9631  magn=  0.0000
     atom  42 (R=0.035)  charge=  0.9833  magn= -0.0000
     atom  43 (R=0.035)  charge=  0.9709  magn= -0.0000
     atom  44 (R=0.035)  charge=  0.9618  magn=  0.0000
     atom  45 (R=0.035)  charge=  0.9833  magn= -0.0000
     atom  46 (R=0.035)  charge=  0.9699  magn= -0.0000
     atom  47 (R=0.035)  charge=  0.9625  magn= -0.0000
     atom  48 (R=0.035)  charge=  0.9824  magn=  0.0000
     atom  49 (R=0.035)  charge=  0.9712  magn= -0.0000
     atom  50 (R=0.035)  charge=  0.9613  magn= -0.0000
     atom  51 (R=0.035)  charge=  0.9824  magn=  0.0000
     atom  52 (R=0.035)  charge=  0.9690  magn=  0.0000
     atom  53 (R=0.035)  charge=  0.9644  magn= -0.0000
     atom  54 (R=0.035)  charge=  0.9841  magn=  0.0000
     atom  55 (R=0.035)  charge=  0.9696  magn= -0.0000
     atom  56 (R=0.035)  charge=  0.9638  magn=  0.0000
     atom  57 (R=0.035)  charge=  0.9825  magn= -0.0000
     atom  58 (R=0.035)  charge=  0.9703  magn= -0.0000
     atom  59 (R=0.035)  charge=  0.9619  magn=  0.0000
     atom  60 (R=0.035)  charge=  0.9822  magn= -0.0000
     atom  61 (R=0.035)  charge=  0.9706  magn= -0.0000
     atom  62 (R=0.035)  charge=  0.9612  magn=  0.0000
     atom  63 (R=0.035)  charge=  0.9826  magn= -0.0000
     atom  64 (R=0.035)  charge=  0.9705  magn= -0.0000
     atom  65 (R=0.035)  charge=  0.9628  magn= -0.0000
     atom  66 (R=0.035)  charge=  0.9835  magn=  0.0000
     atom  67 (R=0.035)  charge=  0.9816  magn=  0.0000
     atom  68 (R=0.035)  charge=  0.9639  magn= -0.0000
     atom  69 (R=0.035)  charge=  0.9823  magn=  0.0000
     atom  70 (R=0.035)  charge=  0.9697  magn= -0.0000
     atom  71 (R=0.035)  charge=  0.9628  magn=  0.0000
     atom  72 (R=0.035)  charge=  0.9824  magn= -0.0000
     atom  73 (R=0.041)  charge=  3.4718  magn=  0.0000

     total cpu time spent up to now is      205.9 secs

     End of self-consistent calculation

 ------ SPIN UP ------------


          k = 0.0000 0.0000 0.0000 ( 50657 PWs)   bands (ev):

   -23.3704 -20.5228 -20.3721 -20.3643 -20.3090 -18.8114 -18.7284 -18.6956
   -18.6715 -18.6543 -18.6225 -18.5939 -18.5435 -17.9275 -17.7218 -17.7005
   -17.6527 -17.6406 -17.5753 -17.5377 -17.3855 -17.2901 -17.2761 -17.1613
   -17.1054 -16.6386 -16.5799 -16.5371 -16.2496 -16.2078 -16.0879 -15.7353
   -15.6445 -15.5808 -15.5123 -15.4943 -15.1500 -15.0645 -15.0339 -15.0234
   -14.9916 -14.6828 -14.2619 -14.1210 -13.9071 -13.8285 -13.7449 -13.3860
   -13.3382 -13.2675 -13.0666 -12.9780 -12.9307 -12.9153 -12.8224 -12.2097
   -12.1965 -11.8767 -11.7673 -11.7591 -11.6888 -11.6008 -11.5938 -11.3945
   -11.0437 -10.9143 -10.6128 -10.6063 -10.5588 -10.3637 -10.2508 -10.1759
   -10.0118  -9.9586  -9.9201  -9.8517  -9.8249  -8.9483  -8.8395  -8.6075
    -8.5895  -8.5459  -8.5210  -8.4970  -8.4732  -8.4525  -8.4439  -8.4383
    -8.3913  -7.8189  -7.3675  -7.1862  -7.0767  -7.0596  -7.0135  -6.9791
    -6.9511  -6.9216  -6.8283  -6.6160  -6.4542  -6.4185  -6.4163  -6.3923
    -6.3670  -6.3652  -6.3576  -6.3330  -6.3176  -6.1926  -6.1733  -6.1416
    -6.0558  -6.0448  -5.8991  -5.8689  -5.7573  -5.6073  -5.5588  -5.5176
    -5.4749  -5.4457  -5.3075  -4.4850  -4.3867  -4.3659  -4.3357  -4.2771
    -4.1160  -4.0847  -4.0437  -3.9832  -3.9575  -3.8988  -3.6598  -3.6365
    -3.4828  -3.4495  -3.4411  -3.4073  -3.3810  -3.1326  -2.9117  -2.7969
    -2.7222  -2.6049  -2.2548  -1.7187  -1.5988  -1.5693  -1.4648  -1.2832
    -1.2467  -1.1155  -1.0174  -0.9968  -0.8376  -0.7874  -0.5090  -0.0733
     0.1526   0.1633   0.2037   0.2390   0.2449   0.4178   0.7014   0.7453
     0.8274   0.8781   0.9188   1.3747   1.6683   1.6997   1.7959   2.0176

 ------ SPIN DOWN ----------


          k = 0.0000 0.0000 0.0000 ( 50657 PWs)   bands (ev):

   -23.3704 -20.5228 -20.3721 -20.3643 -20.3090 -18.8114 -18.7284 -18.6956
   -18.6715 -18.6543 -18.6225 -18.5939 -18.5435 -17.9276 -17.7218 -17.7005
   -17.6527 -17.6406 -17.5753 -17.5377 -17.3855 -17.2901 -17.2761 -17.1613
   -17.1054 -16.6386 -16.5799 -16.5371 -16.2496 -16.2078 -16.0879 -15.7353
   -15.6445 -15.5808 -15.5123 -15.4943 -15.1500 -15.0645 -15.0339 -15.0234
   -14.9916 -14.6828 -14.2619 -14.1210 -13.9071 -13.8285 -13.7449 -13.3860
   -13.3382 -13.2675 -13.0666 -12.9780 -12.9307 -12.9153 -12.8224 -12.2097
   -12.1965 -11.8767 -11.7673 -11.7591 -11.6888 -11.6008 -11.5938 -11.3945
   -11.0437 -10.9143 -10.6128 -10.6063 -10.5588 -10.3637 -10.2508 -10.1759
   -10.0118  -9.9586  -9.9201  -9.8517  -9.8249  -8.9483  -8.8395  -8.6075
    -8.5895  -8.5459  -8.5210  -8.4970  -8.4732  -8.4525  -8.4439  -8.4383
    -8.3913  -7.8189  -7.3675  -7.1862  -7.0767  -7.0596  -7.0134  -6.9791
    -6.9511  -6.9216  -6.8283  -6.6160  -6.4542  -6.4185  -6.4163  -6.3923
    -6.3670  -6.3652  -6.3576  -6.3330  -6.3176  -6.1926  -6.1733  -6.1416
    -6.0558  -6.0448  -5.8991  -5.8689  -5.7573  -5.6073  -5.5588  -5.5176
    -5.4749  -5.4457  -5.3075  -4.4850  -4.3867  -4.3659  -4.3357  -4.2771
    -4.1160  -4.0847  -4.0437  -3.9832  -3.9575  -3.8988  -3.6598  -3.6365
    -3.4828  -3.4495  -3.4411  -3.4073  -3.3810  -3.1326  -2.9117  -2.7969
    -2.7222  -2.6049  -2.2549  -1.7188  -1.5988  -1.5693  -1.4648  -1.2832
    -1.2467  -1.1155  -1.0174  -0.9968  -0.8376  -0.7874  -0.5089  -0.0733
     0.1526   0.1633   0.2037   0.2390   0.2449   0.4178   0.7014   0.7453
     0.8274   0.8781   0.9188   1.3747   1.6683   1.6997   1.7959   2.0176

     the spin up/dw Fermi energies are    -1.9399   -1.9399 ev

!    total energy              =   -1364.79899583 Ry
     total all-electron energy =     -5632.660931 Ry
     estimated scf accuracy    <       0.00000044 Ry
     smearing contrib. (-TS)   =      -0.00000000 Ry
     internal energy E=F+TS    =   -1364.79899583 Ry

     The total energy is F=E-TS. E is the sum of the following terms:
     one-electron contribution =   -1987.09858790 Ry
     hartree contribution      =    1052.52600467 Ry
     xc contribution           =    -333.68695706 Ry
     ewald contribution        =     357.05214625 Ry
     one-center paw contrib.   =    -453.59160179 Ry

     total magnetization       =     0.00 Bohr mag/cell
     absolute magnetization    =     0.00 Bohr mag/cell

     convergence has been achieved in  13 iterations

     negative rho (up, down):  2.658E-04 2.658E-04

     Forces acting on atoms (cartesian axes, Ry/au):

     atom    1 type  1   force =    -0.05344570   -0.06195969   -0.11786971
     atom    2 type  1   force =     0.05135751    0.15602490    0.44985216
     atom    3 type  1   force =    -0.00298085   -0.50272872   -0.56369875
     atom    4 type  1   force =    -0.00031185   -0.00619644    0.00601859
     atom    5 type  1   force =     0.00067412   -0.11223584    0.11325405
     atom    6 type  1   force =     0.00014068    0.15873309   -0.15866797
     atom    7 type  1   force =     0.00053010   -0.02988296   -0.02982795
     atom    8 type  1   force =    -0.00049611   -0.06503714   -0.06623213
     atom    9 type  1   force =    -0.00302722    0.46648432    0.46259616
     atom   10 type  1   force =     0.00169415    0.00647311   -0.00714002
     atom   11 type  1   force =    -0.00042473    0.11656782   -0.11607435
     atom   12 type  1   force =     0.00004160   -0.16204534    0.16201493
     atom   13 type  1   force =     0.00708212   -0.00624487    0.00070923
     atom   14 type  1   force =     0.11981983   -0.00027537    0.11763358
     atom   15 type  1   force =    -0.16432172    0.00006594   -0.16449782
     atom   16 type  1   force =     0.01605052   -0.00444014   -0.00865939
     atom   17 type  1   force =     0.11407826   -0.00205049   -0.11167261
     atom   18 type  1   force =    -0.15932384    0.00018775    0.15962693
     atom   19 type  1   force =    -0.00664814    0.00045056   -0.00718456
     atom   20 type  1   force =    -0.11744588   -0.00002677   -0.11718074
     atom   21 type  1   force =     0.16342694    0.00017553    0.16347747
     atom   22 type  1   force =    -0.00441082   -0.00000991    0.00436795
     atom   23 type  1   force =    -0.11811590   -0.00004554    0.11780519
     atom   24 type  1   force =     0.16270717    0.00026947   -0.16296476
     atom   25 type  1   force =     0.00534621    0.00636259   -0.00163310
     atom   26 type  1   force =     0.11776400    0.11849533   -0.00084541
     atom   27 type  1   force =    -0.16380835   -0.16408487    0.00014672
     atom   28 type  1   force =    -0.00699685    0.00212191   -0.00507439
     atom   29 type  1   force =    -0.11363769    0.11242252   -0.00031348
     atom   30 type  1   force =     0.15886733   -0.15886919    0.00013078
     atom   31 type  1   force =    -0.01658503   -0.00663914    0.00671173
     atom   32 type  1   force =    -0.11572390   -0.11452043    0.00057732
     atom   33 type  1   force =     0.16335265    0.16338344   -0.00003226
     atom   34 type  1   force =     0.00623604   -0.00559110   -0.00073930
     atom   35 type  1   force =     0.11727631   -0.11728712   -0.00012375
     atom   36 type  1   force =    -0.16211870    0.16216213    0.00010429
     atom   37 type  1   force =     0.00239770   -0.00934273   -0.01095202
     atom   38 type  1   force =     0.00044224   -0.11267891   -0.11464319
     atom   39 type  1   force =    -0.00002371    0.16096802    0.16080925
     atom   40 type  1   force =     0.00081128    0.00677134   -0.00600724
     atom   41 type  1   force =    -0.00031281    0.11195822   -0.11218260
     atom   42 type  1   force =     0.00016160   -0.15804652    0.15824111
     atom   43 type  1   force =    -0.00099216    0.01110132    0.01039548
     atom   44 type  1   force =    -0.00041850    0.11449833    0.11455398
     atom   45 type  1   force =     0.00009925   -0.16229661   -0.16221499
     atom   46 type  1   force =     0.00008216   -0.00547999    0.00584793
     atom   47 type  1   force =    -0.00051632   -0.11698585    0.11721018
     atom   48 type  1   force =     0.00010267    0.16191380   -0.16192207
     atom   49 type  1   force =    -0.01680780    0.01435732   -0.00275596
     atom   50 type  1   force =    -0.11297399   -0.00095148   -0.11527506
     atom   51 type  1   force =     0.16098701    0.00016495    0.16073823
     atom   52 type  1   force =    -0.01101557   -0.02112016   -0.01755774
     atom   53 type  1   force =    -0.10612712    0.00227257    0.10729488
     atom   54 type  1   force =     0.15462523   -0.00059247   -0.15667486
     atom   55 type  1   force =     0.00668615   -0.00027568    0.00724842
     atom   56 type  1   force =     0.11514677   -0.00166154    0.11735528
     atom   57 type  1   force =    -0.16205170   -0.00025680   -0.16189323
     atom   58 type  1   force =     0.00396585   -0.00057946   -0.00398784
     atom   59 type  1   force =     0.12023955   -0.00035191   -0.12024843
     atom   60 type  1   force =    -0.16484542   -0.00038076    0.16442104
     atom   61 type  1   force =    -0.00534839   -0.00621351    0.00033707
     atom   62 type  1   force =    -0.11709483   -0.11689787   -0.00013876
     atom   63 type  1   force =     0.16416153    0.16328745    0.00010610
     atom   64 type  1   force =     0.01678645   -0.00319175    0.01483421
     atom   65 type  1   force =     0.10853595   -0.11078373   -0.00053097
     atom   66 type  1   force =    -0.15630995    0.15610418    0.00028678
     atom   67 type  1   force =     0.03430945    0.00238135   -0.06598503
     atom   68 type  1   force =     0.11450791    0.12086984    0.00291961
     atom   69 type  1   force =    -0.16332389   -0.16393022   -0.00013632
     atom   70 type  1   force =    -0.00747575    0.00652675    0.00160864
     atom   71 type  1   force =    -0.11508974    0.11449409   -0.00023689
     atom   72 type  1   force =     0.15986536   -0.15968942   -0.00028569
     atom   73 type  2   force =    -0.01980871    0.05382849   -0.05517390

     Total force =     1.734241     Total SCF correction =     0.000958
     Energy error            =      2.8E-01 Ry
     Gradient error          =      5.6E-01 Ry/Bohr

     number of scf cycles    =   2
     number of bfgs steps    =   1

     energy             old  =   -1365.0789266002 Ry
     energy             new  =   -1364.7989958348 Ry

     CASE: energy            _new > energy            _old

     new trust radius        =       0.1367673841 bohr
     new conv_thr            =       0.0000010000 Ry


ATOMIC_POSITIONS (angstrom)
C             6.6691213743        0.8861109206        7.6563296254
C             6.6736340978        1.8562602332        8.6688015881
C             6.6715152227        2.8164808529        9.6117604934
C            -0.1271372694        5.6591603205        7.6857582996
C            13.4720256468        4.6513195413        8.6936991893
C            13.4710364720        3.7649884157        9.5790666360
C             6.6729152975        5.6589500405       12.4589809184
C             6.6719988071        4.6554139325       11.4546578185
C             6.6716462574        3.7629408012       10.5591803437
C            -0.1272138400        0.8857219472       12.4594919786
C            -0.1270109718        1.8933486611       11.4516520527
C            13.4719627853        2.7793453098       10.5656338312
C             7.6852344560        6.6716950626        0.8847105551
C             8.6932264310        6.6729405592        1.8931895477
C             9.5794497732        6.6720106490        2.7794823525
C             7.6864314377       -0.1286820270        5.6595110850
C             8.6935724925       13.4719108583        4.6515233866
C             9.5791463301       13.4710693854        3.7648960534
C            12.4601169976        6.6729245914        5.6601554287
C            11.4516804483        6.6720207477        4.6526655082
C            10.5655362525        6.6720012659        3.7665041638
C            12.4593214806       -0.1272282096        0.8849686681
C            11.4517400651       -0.1270194647        1.8932240395
C            10.5655854905       13.4719640570        2.7793865617
C             0.8851555387        7.6850559108        6.6721140871
C             1.8932054708        8.6932146379        6.6729430290
C             2.7795204148        9.5794600371        6.6719934442
C             5.6589471609        7.6854117039       -0.1275633452
C             4.6513235352        8.6936689290       13.4719968243
C             3.7650243173        9.5790327471       13.4710406874
C             5.6607715019       12.4605227121        6.6732338613
C             4.6525971478       11.4518278107        6.6721422238
C             3.7665387502       10.5655721368        6.6719741712
C             0.8849982817       12.4592461919       -0.1272968800
C             1.8932846354       11.4516832546       13.4720210191
C             2.7793263041       10.5656544939       13.4719556382
C             6.6732198663       12.4602098785        5.6598243899
C             6.6719811236       11.4519093596        4.6527238767
C             6.6720042396       10.5652709601        3.7662409392
C            -0.1271679566        7.6857371438        5.6591565900
C            13.4720154329        8.6936967552        4.6513052935
C            13.4710371593        9.5790488075        3.7650113323
C             6.6720971156        7.6855221171        0.8856060364
C             6.6729455553        8.6927669164        1.8927840146
C             6.6720058384        9.5798355255        2.7798722885
C            -0.1273531809       12.4593524349        0.8850224557
C            -0.1270483374       11.4517189504        1.8932777695
C            13.4719646475       10.5656425526        2.7793338174
C             5.6595223369        6.6734825078       12.4602689485
C             4.6528870947        6.6720458072       11.4518588653
C             3.7663888349        6.6719868733       10.5654046392
C             5.6592438861       -0.1258461081        7.6866067341
C             4.6502252727       13.4719465928        8.6937950549
C             3.7647587794       13.4718989981        9.5786767659
C             0.8850942085        6.6721298819        7.6849999735
C             1.8931565287        6.6729250772        8.6931917249
C             2.7795602982        6.6719862245        9.5795453041
C             0.8849998851       13.4720099330       12.4590814427
C             1.8930988967       13.4719639004       11.4518860673
C             2.7795399104       13.4719479385       10.5654901850
C            12.4600801648        5.6601487720        6.6728820596
C            11.4516973138        4.6526901133        6.6720338422
C            10.5655905729        3.7664996035        6.6720098134
C             7.6863967272        5.6593162881       -0.1265456382
C             8.6935151930        4.6514399213       13.4720675527
C             9.5791333960        3.7648967703       13.4710230885
C             7.6829404719        0.8851668703        6.6729803389
C             8.6930596686        1.8939260586        6.6727277372
C             9.5795249615        2.7795055271        6.6720388093
C            12.4594940775        0.8858021525       -0.1272558974
C            11.4516064348        1.8933556902       -0.1269963617
C            10.5656070387        2.7793823074       13.4719469876
O             6.9689479498        1.0746818801        9.7563382730



     Writing config-only to output data dir ./pwscf.save/
     NEW-OLD atomic charge density approx. for the potential

     Check: negative core charge=   -0.000003

     negative rho (up, down):  2.667E-04 2.667E-04
     Generating pointlists ...

     total cpu time spent up to now is      212.5 secs

     Self-consistent Calculation

     iteration #  1     ecut=    50.00 Ry     beta= 0.30
     Davidson diagonalization with overlap
     ethr =  1.00E-06,  avg # of iterations = 13.0

     negative rho (up, down):  2.709E-04 2.709E-04

     total cpu time spent up to now is      232.2 secs

     total energy              =   -1365.13853286 Ry
     estimated scf accuracy    <       0.46133800 Ry

     total magnetization       =     0.00 Bohr mag/cell
     absolute magnetization    =     0.00 Bohr mag/cell

     iteration #  2     ecut=    50.00 Ry     beta= 0.30
     Davidson diagonalization with overlap
     ethr =  1.57E-04,  avg # of iterations =  2.0

     negative rho (up, down):  2.727E-04 2.727E-04

     total cpu time spent up to now is      238.8 secs

     total energy              =   -1365.18163339 Ry
     estimated scf accuracy    <       0.09383394 Ry

     total magnetization       =     0.00 Bohr mag/cell
     absolute magnetization    =     0.00 Bohr mag/cell

     iteration #  3     ecut=    50.00 Ry     beta= 0.30
     Davidson diagonalization with overlap
     ethr =  3.19E-05,  avg # of iterations =  2.0

     negative rho (up, down):  2.735E-04 2.735E-04

     total cpu time spent up to now is      245.1 secs

     total energy              =   -1365.18165539 Ry
     estimated scf accuracy    <       0.03713678 Ry

     total magnetization       =     0.00 Bohr mag/cell
     absolute magnetization    =     0.00 Bohr mag/cell

     iteration #  4     ecut=    50.00 Ry     beta= 0.30
     Davidson diagonalization with overlap
     ethr =  1.26E-05,  avg # of iterations =  3.0

     negative rho (up, down):  2.748E-04 2.748E-04

     total cpu time spent up to now is      251.5 secs

     total energy              =   -1365.18282813 Ry
     estimated scf accuracy    <       0.01974257 Ry

     total magnetization       =     0.00 Bohr mag/cell
     absolute magnetization    =     0.00 Bohr mag/cell

     iteration #  5     ecut=    50.00 Ry     beta= 0.30
     Davidson diagonalization with overlap
     ethr =  6.72E-06,  avg # of iterations =  2.0

     negative rho (up, down):  2.770E-04 2.770E-04

     total cpu time spent up to now is      257.8 secs

     total energy              =   -1365.18487503 Ry
     estimated scf accuracy    <       0.00179797 Ry

     total magnetization       =    -0.00 Bohr mag/cell
     absolute magnetization    =     0.00 Bohr mag/cell

     iteration #  6     ecut=    50.00 Ry     beta= 0.30
     Davidson diagonalization with overlap
     ethr =  6.12E-07,  avg # of iterations =  2.0

     negative rho (up, down):  2.758E-04 2.758E-04

     total cpu time spent up to now is      264.8 secs

     total energy              =   -1365.18520966 Ry
     estimated scf accuracy    <       0.00036067 Ry

     total magnetization       =     0.00 Bohr mag/cell
     absolute magnetization    =     0.00 Bohr mag/cell

     iteration #  7     ecut=    50.00 Ry     beta= 0.30
     Davidson diagonalization with overlap
     ethr =  1.23E-07,  avg # of iterations =  4.0

     negative rho (up, down):  2.764E-04 2.764E-04

     total cpu time spent up to now is      271.6 secs

     total energy              =   -1365.18525422 Ry
     estimated scf accuracy    <       0.00010256 Ry

     total magnetization       =     0.00 Bohr mag/cell
     absolute magnetization    =     0.00 Bohr mag/cell

     iteration #  8     ecut=    50.00 Ry     beta= 0.30
     Davidson diagonalization with overlap
     ethr =  3.49E-08,  avg # of iterations =  2.0

     negative rho (up, down):  2.760E-04 2.760E-04

     total cpu time spent up to now is      278.5 secs

     total energy              =   -1365.18526963 Ry
     estimated scf accuracy    <       0.00002196 Ry

     total magnetization       =     0.00 Bohr mag/cell
     absolute magnetization    =     0.00 Bohr mag/cell

     iteration #  9     ecut=    50.00 Ry     beta= 0.30
     Davidson diagonalization with overlap
     ethr =  7.47E-09,  avg # of iterations =  2.0

     negative rho (up, down):  2.756E-04 2.756E-04

     total cpu time spent up to now is      284.9 secs

     total energy              =   -1365.18527182 Ry
     estimated scf accuracy    <       0.00000619 Ry

     total magnetization       =    -0.00 Bohr mag/cell
     absolute magnetization    =     0.00 Bohr mag/cell

     iteration # 10     ecut=    50.00 Ry     beta= 0.30
     Davidson diagonalization with overlap
     ethr =  2.11E-09,  avg # of iterations =  3.0

     negative rho (up, down):  2.754E-04 2.754E-04

     total cpu time spent up to now is      291.4 secs

     total energy              =   -1365.18527272 Ry
     estimated scf accuracy    <       0.00000176 Ry

     total magnetization       =     0.00 Bohr mag/cell
     absolute magnetization    =     0.00 Bohr mag/cell

     iteration # 11     ecut=    50.00 Ry     beta= 0.30
     Davidson diagonalization with overlap
     ethr =  5.99E-10,  avg # of iterations =  4.0

     negative rho (up, down):  2.751E-04 2.751E-04

     Magnetic moment per site  (integrated on atomic sphere of radius R)
     atom   1 (R=0.035)  charge=  0.9890  magn= -0.0000
     atom   2 (R=0.035)  charge=  0.9743  magn=  0.0000
     atom   3 (R=0.035)  charge=  0.9568  magn= -0.0000
     atom   4 (R=0.035)  charge=  0.9703  magn=  0.0000
     atom   5 (R=0.035)  charge=  0.9817  magn=  0.0000
     atom   6 (R=0.035)  charge=  0.9780  magn= -0.0000
     atom   7 (R=0.035)  charge=  0.9714  magn=  0.0000
     atom   8 (R=0.035)  charge=  0.9759  magn=  0.0000
     atom   9 (R=0.035)  charge=  0.9902  magn= -0.0000
     atom  10 (R=0.035)  charge=  0.9702  magn=  0.0000
     atom  11 (R=0.035)  charge=  0.9813  magn= -0.0000
     atom  12 (R=0.035)  charge=  0.9782  magn=  0.0000
     atom  13 (R=0.035)  charge=  0.9699  magn=  0.0000
     atom  14 (R=0.035)  charge=  0.9821  magn= -0.0000
     atom  15 (R=0.035)  charge=  0.9776  magn=  0.0000
     atom  16 (R=0.035)  charge=  0.9706  magn= -0.0000
     atom  17 (R=0.035)  charge=  0.9816  magn=  0.0000
     atom  18 (R=0.035)  charge=  0.9779  magn= -0.0000
     atom  19 (R=0.035)  charge=  0.9708  magn=  0.0000
     atom  20 (R=0.035)  charge=  0.9808  magn=  0.0000
     atom  21 (R=0.035)  charge=  0.9778  magn= -0.0000
     atom  22 (R=0.035)  charge=  0.9701  magn=  0.0000
     atom  23 (R=0.035)  charge=  0.9811  magn= -0.0000
     atom  24 (R=0.035)  charge=  0.9781  magn=  0.0000
     atom  25 (R=0.035)  charge=  0.9700  magn=  0.0000
     atom  26 (R=0.035)  charge=  0.9823  magn= -0.0000
     atom  27 (R=0.035)  charge=  0.9775  magn=  0.0000
     atom  28 (R=0.035)  charge=  0.9703  magn=  0.0000
     atom  29 (R=0.035)  charge=  0.9816  magn= -0.0000
     atom  30 (R=0.035)  charge=  0.9781  magn=  0.0000
     atom  31 (R=0.035)  charge=  0.9704  magn= -0.0000
     atom  32 (R=0.035)  charge=  0.9806  magn=  0.0000
     atom  33 (R=0.035)  charge=  0.9777  magn= -0.0000
     atom  34 (R=0.035)  charge=  0.9703  magn=  0.0000
     atom  35 (R=0.035)  charge=  0.9814  magn=  0.0000
     atom  36 (R=0.035)  charge=  0.9780  magn= -0.0000
     atom  37 (R=0.035)  charge=  0.9708  magn=  0.0000
     atom  38 (R=0.035)  charge=  0.9808  magn= -0.0000
     atom  39 (R=0.035)  charge=  0.9775  magn=  0.0000
     atom  40 (R=0.035)  charge=  0.9704  magn= -0.0000
     atom  41 (R=0.035)  charge=  0.9816  magn=  0.0000
     atom  42 (R=0.035)  charge=  0.9781  magn= -0.0000
     atom  43 (R=0.035)  charge=  0.9702  magn= -0.0000
     atom  44 (R=0.035)  charge=  0.9817  magn=  0.0000
     atom  45 (R=0.035)  charge=  0.9774  magn= -0.0000
     atom  46 (R=0.035)  charge=  0.9702  magn= -0.0000
     atom  47 (R=0.035)  charge=  0.9813  magn= -0.0000
     atom  48 (R=0.035)  charge=  0.9781  magn=  0.0000
     atom  49 (R=0.035)  charge=  0.9710  magn= -0.0000
     atom  50 (R=0.035)  charge=  0.9806  magn= -0.0000
     atom  51 (R=0.035)  charge=  0.9778  magn=  0.0000
     atom  52 (R=0.035)  charge=  0.9700  magn=  0.0000
     atom  53 (R=0.035)  charge=  0.9821  magn= -0.0000
     atom  54 (R=0.035)  charge=  0.9786  magn=  0.0000
     atom  55 (R=0.035)  charge=  0.9700  magn= -0.0000
     atom  56 (R=0.035)  charge=  0.9822  magn=  0.0000
     atom  57 (R=0.035)  charge=  0.9775  magn= -0.0000
     atom  58 (R=0.035)  charge=  0.9701  magn= -0.0000
     atom  59 (R=0.035)  charge=  0.9813  magn=  0.0000
     atom  60 (R=0.035)  charge=  0.9777  magn= -0.0000
     atom  61 (R=0.035)  charge=  0.9709  magn= -0.0000
     atom  62 (R=0.035)  charge=  0.9806  magn=  0.0000
     atom  63 (R=0.035)  charge=  0.9781  magn= -0.0000
     atom  64 (R=0.035)  charge=  0.9705  magn= -0.0000
     atom  65 (R=0.035)  charge=  0.9816  magn= -0.0000
     atom  66 (R=0.035)  charge=  0.9780  magn=  0.0000
     atom  67 (R=0.035)  charge=  0.9743  magn=  0.0000
     atom  68 (R=0.035)  charge=  0.9827  magn= -0.0000
     atom  69 (R=0.035)  charge=  0.9775  magn=  0.0000
     atom  70 (R=0.035)  charge=  0.9702  magn= -0.0000
     atom  71 (R=0.035)  charge=  0.9814  magn=  0.0000
     atom  72 (R=0.035)  charge=  0.9781  magn= -0.0000
     atom  73 (R=0.041)  charge=  3.4988  magn=  0.0000

     total cpu time spent up to now is      298.4 secs

     End of self-consistent calculation

 ------ SPIN UP ------------


          k = 0.0000 0.0000 0.0000 ( 50657 PWs)   bands (ev):

   -24.2331 -20.4315 -20.4057 -20.3908 -20.3822 -18.6979 -18.6669 -18.6486
   -18.6455 -18.6050 -18.5710 -18.5459 -18.5434 -17.5910 -17.5657 -17.5398
   -17.5243 -17.4683 -17.4049 -17.3680 -17.1973 -17.1001 -17.0699 -16.9345
   -16.8736 -16.7083 -16.6886 -16.5728 -16.3460 -16.3227 -16.1443 -15.8785
   -15.8364 -15.6713 -15.4313 -15.3374 -15.3242 -15.2066 -15.1243 -14.9553
   -14.9010 -14.8378 -14.1661 -14.0357 -14.0076 -13.9290 -13.7058 -13.1939
   -13.1613 -13.0658 -13.0302 -12.9711 -12.9475 -12.7230 -12.6503 -12.1858
   -12.0248 -11.8583 -11.6908 -11.6675 -11.6073 -11.5309 -11.5109 -11.3207
   -10.9492 -10.8079 -10.6230 -10.6103 -10.6017 -10.3722 -10.2021 -10.1772
   -10.0090  -9.9101  -9.8940  -9.8278  -9.8058  -8.8679  -8.7427  -8.5744
    -8.5473  -8.4910  -8.4905  -8.4811  -8.4670  -8.4515  -8.4434  -8.4193
    -8.4125  -7.9855  -7.5668  -7.0930  -7.0573  -7.0015  -6.9882  -6.9424
    -6.9196  -6.9159  -6.8880  -6.4221  -6.3376  -6.3326  -6.3115  -6.2959
    -6.2759  -6.2739  -6.2577  -6.2374  -6.2170  -6.1054  -6.0646  -6.0338
    -5.9325  -5.9161  -5.8158  -5.7940  -5.6658  -5.5165  -5.4548  -5.4382
    -5.4251  -5.2994  -5.1694  -4.6903  -4.5223  -4.5204  -4.4970  -4.4450
    -4.2786  -4.2287  -4.2152  -4.1810  -4.1625  -4.0916  -3.8755  -3.8003
    -3.7487  -3.7185  -3.6021  -3.5825  -3.5386  -3.3138  -3.1078  -2.9971
    -2.9722  -2.8920  -2.5425  -1.4230  -1.3716  -1.3025  -1.2013  -1.0510
    -0.9456  -0.8732  -0.8042  -0.5650  -0.4128  -0.3593  -0.0941   0.3261
     0.4803   0.5264   0.5686   0.6317   0.6625   0.7703   1.0199   1.0308
     1.1779   1.2207   1.2697   1.6576   1.7239   1.8126   1.8515   2.0928

 ------ SPIN DOWN ----------


          k = 0.0000 0.0000 0.0000 ( 50657 PWs)   bands (ev):

   -24.2331 -20.4315 -20.4057 -20.3908 -20.3822 -18.6979 -18.6669 -18.6486
   -18.6455 -18.6050 -18.5710 -18.5459 -18.5434 -17.5910 -17.5657 -17.5398
   -17.5243 -17.4683 -17.4049 -17.3680 -17.1973 -17.1001 -17.0699 -16.9345
   -16.8736 -16.7083 -16.6886 -16.5728 -16.3460 -16.3227 -16.1443 -15.8785
   -15.8364 -15.6713 -15.4313 -15.3374 -15.3242 -15.2066 -15.1243 -14.9553
   -14.9010 -14.8378 -14.1661 -14.0357 -14.0076 -13.9290 -13.7058 -13.1939
   -13.1613 -13.0658 -13.0302 -12.9711 -12.9475 -12.7230 -12.6503 -12.1858
   -12.0248 -11.8583 -11.6908 -11.6675 -11.6073 -11.5309 -11.5109 -11.3207
   -10.9492 -10.8079 -10.6230 -10.6103 -10.6017 -10.3722 -10.2021 -10.1772
   -10.0090  -9.9101  -9.8940  -9.8278  -9.8058  -8.8679  -8.7427  -8.5744
    -8.5473  -8.4910  -8.4905  -8.4811  -8.4670  -8.4515  -8.4434  -8.4193
    -8.4125  -7.9855  -7.5668  -7.0930  -7.0573  -7.0015  -6.9882  -6.9424
    -6.9196  -6.9159  -6.8880  -6.4221  -6.3376  -6.3326  -6.3115  -6.2959
    -6.2759  -6.2739  -6.2577  -6.2374  -6.2170  -6.1054  -6.0646  -6.0338
    -5.9325  -5.9161  -5.8158  -5.7940  -5.6658  -5.5165  -5.4548  -5.4382
    -5.4251  -5.2994  -5.1694  -4.6903  -4.5223  -4.5204  -4.4970  -4.4450
    -4.2786  -4.2287  -4.2152  -4.1810  -4.1625  -4.0916  -3.8755  -3.8003
    -3.7487  -3.7185  -3.6021  -3.5825  -3.5386  -3.3138  -3.1078  -2.9971
    -2.9722  -2.8920  -2.5425  -1.4230  -1.3716  -1.3024  -1.2013  -1.0510
    -0.9456  -0.8732  -0.8042  -0.5650  -0.4128  -0.3593  -0.0941   0.3261
     0.4803   0.5264   0.5686   0.6317   0.6625   0.7703   1.0199   1.0308
     1.1779   1.2207   1.2697   1.6576   1.7239   1.8126   1.8515   2.0928

     the spin up/dw Fermi energies are    -2.0113   -2.0113 ev

!    total energy              =   -1365.18527276 Ry
     total all-electron energy =     -5633.047208 Ry
     estimated scf accuracy    <       0.00000067 Ry
     smearing contrib. (-TS)   =      -0.00000000 Ry
     internal energy E=F+TS    =   -1365.18527276 Ry

     The total energy is F=E-TS. E is the sum of the following terms:
     one-electron contribution =   -1995.78869170 Ry
     hartree contribution      =    1057.18821233 Ry
     xc contribution           =    -334.10858943 Ry
     ewald contribution        =     361.12260499 Ry
     one-center paw contrib.   =    -453.59880896 Ry

     total magnetization       =     0.00 Bohr mag/cell
     absolute magnetization    =     0.00 Bohr mag/cell

     convergence has been achieved in  11 iterations

     negative rho (up, down):  2.751E-04 2.751E-04

     Forces acting on atoms (cartesian axes, Ry/au):

     atom    1 type  1   force =    -0.02705741   -0.00608196   -0.12837184
     atom    2 type  1   force =     0.02232743    0.00085553    0.15932429
     atom    3 type  1   force =    -0.00417699    0.00338140   -0.03760528
     atom    4 type  1   force =    -0.00052625   -0.01146283    0.01116786
     atom    5 type  1   force =     0.00016490   -0.04060829    0.04081192
     atom    6 type  1   force =     0.00019955   -0.00201799    0.00231373
     atom    7 type  1   force =    -0.00014793   -0.02188901   -0.02173422
     atom    8 type  1   force =    -0.00011171   -0.02722273   -0.02651875
     atom    9 type  1   force =    -0.00194308    0.02775967    0.01578450
     atom   10 type  1   force =    -0.00033282    0.01112202   -0.01055487
     atom   11 type  1   force =    -0.00017879    0.04136620   -0.04127818
     atom   12 type  1   force =    -0.00010566    0.00156750   -0.00162316
     atom   13 type  1   force =     0.01302751   -0.00261462    0.00958181
     atom   14 type  1   force =     0.04217261   -0.00033167    0.04154849
     atom   15 type  1   force =     0.00122224    0.00010436    0.00133566
     atom   16 type  1   force =     0.01650557   -0.00787580   -0.01166759
     atom   17 type  1   force =     0.04088444   -0.00110698   -0.03984558
     atom   18 type  1   force =     0.00226666    0.00035158   -0.00197699
     atom   19 type  1   force =    -0.01165054   -0.00012964   -0.01168674
     atom   20 type  1   force =    -0.04174503    0.00006876   -0.04175698
     atom   21 type  1   force =    -0.00164256    0.00004661   -0.00174566
     atom   22 type  1   force =    -0.01038473   -0.00066503    0.01131644
     atom   23 type  1   force =    -0.04170833   -0.00007145    0.04143645
     atom   24 type  1   force =    -0.00151060   -0.00004776    0.00136962
     atom   25 type  1   force =     0.01212068    0.01204727    0.00003253
     atom   26 type  1   force =     0.04168702    0.04186908   -0.00042895
     atom   27 type  1   force =     0.00157931    0.00129200    0.00001191
     atom   28 type  1   force =    -0.01236683    0.00905011   -0.00317163
     atom   29 type  1   force =    -0.04086756    0.04057235   -0.00014785
     atom   30 type  1   force =    -0.00190419    0.00219798    0.00023703
     atom   31 type  1   force =    -0.01277035   -0.01028334    0.00295587
     atom   32 type  1   force =    -0.04141863   -0.04054195    0.00054202
     atom   33 type  1   force =    -0.00165568   -0.00150493   -0.00010232
     atom   34 type  1   force =     0.01186759   -0.01093468   -0.00115537
     atom   35 type  1   force =     0.04135634   -0.04148435    0.00004091
     atom   36 type  1   force =     0.00148705   -0.00151321   -0.00015208
     atom   37 type  1   force =     0.00179414   -0.01139146   -0.01333331
     atom   38 type  1   force =    -0.00006456   -0.04070780   -0.04184500
[...]
     atom  37 (R=0.035)  charge=  0.9582  magn=  0.0000
     atom  38 (R=0.035)  charge=  0.9857  magn= -0.0001
     atom  39 (R=0.035)  charge=  0.9926  magn=  0.0000
     atom  40 (R=0.035)  charge=  0.9585  magn=  0.0000
     atom  41 (R=0.035)  charge=  0.9864  magn= -0.0000
     atom  42 (R=0.035)  charge=  0.9930  magn= -0.0000
     atom  43 (R=0.035)  charge=  0.9570  magn= -0.0001
     atom  44 (R=0.035)  charge=  0.9849  magn=  0.0000
     atom  45 (R=0.035)  charge=  0.9919  magn= -0.0001
     atom  46 (R=0.035)  charge=  0.9589  magn=  0.0000
     atom  47 (R=0.035)  charge=  0.9857  magn= -0.0000
     atom  48 (R=0.035)  charge=  0.9934  magn= -0.0000
     atom  49 (R=0.035)  charge=  0.9565  magn= -0.0001
     atom  50 (R=0.035)  charge=  0.9864  magn=  0.0000
     atom  51 (R=0.035)  charge=  0.9918  magn= -0.0000
     atom  52 (R=0.035)  charge=  0.9590  magn=  0.0000
     atom  53 (R=0.035)  charge=  0.9870  magn= -0.0000
     atom  54 (R=0.035)  charge=  0.9935  magn= -0.0000
     atom  55 (R=0.035)  charge=  0.9583  magn=  0.0000
     atom  56 (R=0.035)  charge=  0.9862  magn= -0.0000
     atom  57 (R=0.035)  charge=  0.9932  magn=  0.0000
     atom  58 (R=0.035)  charge=  0.9578  magn=  0.0000
     atom  59 (R=0.035)  charge=  0.9873  magn= -0.0000
     atom  60 (R=0.035)  charge=  0.9918  magn=  0.0000
     atom  61 (R=0.035)  charge=  0.9581  magn=  0.0000
     atom  62 (R=0.035)  charge=  0.9859  magn=  0.0000
     atom  63 (R=0.035)  charge=  0.9925  magn=  0.0000
     atom  64 (R=0.035)  charge=  0.9568  magn= -0.0001
     atom  65 (R=0.035)  charge=  0.9864  magn=  0.0000
     atom  66 (R=0.035)  charge=  0.9935  magn= -0.0000
     atom  67 (R=0.035)  charge=  0.9581  magn=  0.0000
     atom  68 (R=0.035)  charge=  0.9865  magn= -0.0000
     atom  69 (R=0.035)  charge=  0.9935  magn= -0.0000
     atom  70 (R=0.035)  charge=  0.9587  magn=  0.0000
     atom  71 (R=0.035)  charge=  0.9862  magn= -0.0000
     atom  72 (R=0.035)  charge=  0.9939  magn=  0.0000
     atom  73 (R=0.039)  charge=  3.1946  magn=  0.0001

     total cpu time spent up to now is     3300.7 secs

     End of self-consistent calculation

 ------ SPIN UP ------------


          k = 0.0000 0.0000 0.0000 ( 50657 PWs)   bands (ev):

   -23.6413 -20.1847 -20.1771 -20.1575 -20.0859 -18.6194 -18.6111 -18.5719
   -18.5486 -18.5152 -18.4391 -18.4112 -18.2729 -17.7252 -17.7038 -17.6636
   -17.6406 -17.6198 -17.5676 -17.4818 -17.2560 -17.2072 -17.1795 -16.9854
   -16.9564 -16.7173 -16.6957 -16.6025 -16.3442 -16.3255 -16.2205 -15.9179
   -15.8989 -15.7621 -15.3869 -15.3648 -15.3095 -15.1598 -15.1114 -14.8561
   -14.8442 -14.8160 -13.9970 -13.9880 -13.9592 -13.8495 -13.7559 -13.1750
   -13.1521 -13.1469 -12.9045 -12.8961 -12.8827 -12.7754 -12.7587 -12.1646
   -12.1339 -11.7478 -11.7088 -11.6989 -11.6188 -11.5595 -11.5313 -11.3351
   -11.0139 -10.4866 -10.4689 -10.4478 -10.4438 -10.1391 -10.1108 -10.0866
    -9.9024  -9.8612  -9.8565  -9.7855  -9.7607  -8.8060  -8.5743  -8.5363
    -8.5120  -8.4376  -8.4314  -8.4029  -8.3931  -8.3520  -8.3413  -8.3132
    -8.1376  -8.0758  -7.3465  -7.0960  -7.0822  -7.0328  -6.9643  -6.9561
    -6.9374  -6.9056  -6.7222  -6.4808  -6.4596  -6.4468  -6.4322  -6.4183
    -6.4084  -6.4073  -6.3730  -6.3568  -6.3357  -6.2012  -6.1722  -6.0564
    -6.0499  -6.0336  -5.8653  -5.8378  -5.7439  -5.5395  -5.5277  -5.4799
    -5.4509  -5.4043  -5.2583  -4.5782  -4.5464  -4.5384  -4.4687  -4.3448
    -4.3214  -4.2728  -4.2532  -4.2316  -4.1692  -4.1358  -3.9244  -3.8320
    -3.7632  -3.7260  -3.6391  -3.6049  -3.5560  -3.3702  -3.1119  -3.0511
    -3.0055  -2.9182  -2.5161  -2.0997  -1.3988  -1.3810  -1.2250  -1.0497
    -0.9989  -0.9008  -0.8269  -0.7384  -0.3733  -0.3343  -0.1093   0.4989
     0.5142   0.5397   0.5945   0.6690   0.6901   0.7865   1.0304   1.0618
     1.2029   1.2446   1.2829   1.6507   1.7500   1.8125   1.8191   2.0802

 ------ SPIN DOWN ----------


          k = 0.0000 0.0000 0.0000 ( 50657 PWs)   bands (ev):

   -23.6411 -20.1848 -20.1771 -20.1575 -20.0859 -18.6193 -18.6112 -18.5719
   -18.5486 -18.5152 -18.4392 -18.4112 -18.2729 -17.7251 -17.7038 -17.6636
   -17.6406 -17.6198 -17.5676 -17.4818 -17.2560 -17.2072 -17.1795 -16.9854
   -16.9564 -16.7173 -16.6957 -16.6025 -16.3442 -16.3255 -16.2205 -15.9179
   -15.8989 -15.7620 -15.3869 -15.3648 -15.3095 -15.1598 -15.1114 -14.8561
   -14.8442 -14.8160 -13.9970 -13.9880 -13.9592 -13.8495 -13.7559 -13.1750
   -13.1521 -13.1469 -12.9045 -12.8961 -12.8827 -12.7754 -12.7587 -12.1646
   -12.1339 -11.7477 -11.7088 -11.6989 -11.6188 -11.5595 -11.5313 -11.3351
   -11.0139 -10.4865 -10.4689 -10.4478 -10.4438 -10.1391 -10.1108 -10.0866
    -9.9024  -9.8612  -9.8565  -9.7856  -9.7607  -8.8060  -8.5743  -8.5364
    -8.5120  -8.4376  -8.4314  -8.4029  -8.3930  -8.3523  -8.3413  -8.3132
    -8.1375  -8.0757  -7.3463  -7.0961  -7.0822  -7.0329  -6.9644  -6.9561
    -6.9374  -6.9056  -6.7222  -6.4808  -6.4596  -6.4469  -6.4323  -6.4183
    -6.4084  -6.4073  -6.3730  -6.3568  -6.3359  -6.2012  -6.1722  -6.0563
    -6.0499  -6.0337  -5.8652  -5.8372  -5.7440  -5.5395  -5.5278  -5.4799
    -5.4509  -5.4044  -5.2583  -4.5782  -4.5464  -4.5384  -4.4687  -4.3449
    -4.3213  -4.2729  -4.2532  -4.2316  -4.1692  -4.1358  -3.9245  -3.8321
    -3.7632  -3.7260  -3.6393  -3.6049  -3.5560  -3.3704  -3.1119  -3.0509
    -3.0055  -2.9182  -2.5154  -2.0988  -1.3988  -1.3810  -1.2250  -1.0498
    -0.9989  -0.9009  -0.8270  -0.7384  -0.3733  -0.3343  -0.1094   0.4989
     0.5141   0.5397   0.5945   0.6691   0.6901   0.7865   1.0304   1.0618
     1.2029   1.2446   1.2828   1.6507   1.7500   1.8125   1.8190   2.0802

     the spin up/dw Fermi energies are    -2.3317   -2.3317 ev

!    total energy              =   -1365.31149682 Ry
     total all-electron energy =     -5633.173432 Ry
     estimated scf accuracy    <          8.6E-09 Ry
     smearing contrib. (-TS)   =      -0.00000000 Ry
     internal energy E=F+TS    =   -1365.31149682 Ry

     The total energy is F=E-TS. E is the sum of the following terms:
     one-electron contribution =   -1967.81793607 Ry
     hartree contribution      =    1043.34965120 Ry
     xc contribution           =    -334.15455016 Ry
     ewald contribution        =     346.92711924 Ry
     one-center paw contrib.   =    -453.61578102 Ry

     total magnetization       =    -0.00 Bohr mag/cell
     absolute magnetization    =     0.01 Bohr mag/cell

     convergence has been achieved in   9 iterations

     negative rho (up, down):  2.753E-04 2.753E-04

     Forces acting on atoms (cartesian axes, Ry/au):

     atom    1 type  1   force =     0.00026039   -0.00006774    0.00018603
     atom    2 type  1   force =    -0.00006568   -0.00035168    0.00003817
     atom    3 type  1   force =    -0.00096757   -0.00019655    0.00043727
     atom    4 type  1   force =    -0.00023332    0.00036972   -0.00008795
     atom    5 type  1   force =    -0.00006891    0.00033789    0.00054373
     atom    6 type  1   force =     0.00016657    0.00015922    0.00022050
     atom    7 type  1   force =    -0.00012806    0.00000894    0.00014461
     atom    8 type  1   force =     0.00034039   -0.00000611    0.00017177
     atom    9 type  1   force =    -0.00021079    0.00001797    0.00023444
     atom   10 type  1   force =     0.00010136   -0.00057306   -0.00011143
     atom   11 type  1   force =    -0.00000651   -0.00081309    0.00011798
     atom   12 type  1   force =     0.00034517   -0.00016265   -0.00046234
     atom   13 type  1   force =    -0.00012422    0.00020192   -0.00009721
     atom   14 type  1   force =     0.00069289    0.00028192    0.00035869
     atom   15 type  1   force =    -0.00058424    0.00029888   -0.00064836
     atom   16 type  1   force =     0.00017863   -0.00004345    0.00016178
     atom   17 type  1   force =     0.00015610   -0.00020928    0.00009537
     atom   18 type  1   force =     0.00018966   -0.00013442    0.00031999
     atom   19 type  1   force =    -0.00012700   -0.00004326   -0.00004441
     atom   20 type  1   force =    -0.00086796    0.00035192   -0.00092490
     atom   21 type  1   force =     0.00062835    0.00050884    0.00060660
     atom   22 type  1   force =     0.00005669   -0.00000574    0.00000029
     atom   23 type  1   force =    -0.00039482    0.00047069   -0.00045901
     atom   24 type  1   force =    -0.00005819   -0.00022209   -0.00019245
     atom   25 type  1   force =    -0.00014387    0.00014190   -0.00041362
     atom   26 type  1   force =    -0.00005256    0.00077470   -0.00042068
     atom   27 type  1   force =    -0.00062504   -0.00082422    0.00031062
     atom   28 type  1   force =    -0.00002683    0.00011650   -0.00020987
     atom   29 type  1   force =     0.00028327   -0.00046435   -0.00041040
     atom   30 type  1   force =    -0.00068844    0.00015024   -0.00070551
     atom   31 type  1   force =    -0.00009549   -0.00018688    0.00032002
     atom   32 type  1   force =     0.00008061   -0.00009891    0.00007517
     atom   33 type  1   force =     0.00060776    0.00018200    0.00051528
     atom   34 type  1   force =     0.00024110   -0.00026605    0.00015760
     atom   35 type  1   force =    -0.00020172    0.00055296    0.00010288
     atom   36 type  1   force =     0.00077522   -0.00044711   -0.00062271
     atom   37 type  1   force =     0.00015194    0.00038438    0.00067867
     atom   38 type  1   force =    -0.00020465   -0.00000793   -0.00090636
     atom   39 type  1   force =     0.00023442    0.00018328    0.00001814
     atom   40 type  1   force =    -0.00036673   -0.00022469   -0.00022568
     atom   41 type  1   force =    -0.00004938   -0.00004968    0.00022244
     atom   42 type  1   force =    -0.00028305    0.00022287   -0.00009136
     atom   43 type  1   force =     0.00013654   -0.00042778   -0.00074580
     atom   44 type  1   force =    -0.00026318    0.00053247   -0.00002277
     atom   45 type  1   force =     0.00001609   -0.00041641   -0.00064170
     atom   46 type  1   force =    -0.00024635    0.00011134    0.00015359
     atom   47 type  1   force =    -0.00038723    0.00007102    0.00000497
     atom   48 type  1   force =    -0.00033832   -0.00032376    0.00002135
     atom   49 type  1   force =    -0.00016363   -0.00024235   -0.00012593
     atom   50 type  1   force =     0.00051038    0.00013775    0.00034079
     atom   51 type  1   force =    -0.00024993   -0.00010799   -0.00041278
     atom   52 type  1   force =     0.00028314    0.00015258    0.00022947
     atom   53 type  1   force =    -0.00031570   -0.00005216    0.00065827
     atom   54 type  1   force =     0.00040084   -0.00002438   -0.00015572
     atom   55 type  1   force =     0.00009984    0.00003404   -0.00007251
     atom   56 type  1   force =     0.00003448    0.00020981   -0.00059521
     atom   57 type  1   force =     0.00040230   -0.00009232    0.00015961
     atom   58 type  1   force =    -0.00036018   -0.00035198    0.00022672
     atom   59 type  1   force =     0.00051224   -0.00025363   -0.00027528
     atom   60 type  1   force =    -0.00005484   -0.00011720    0.00077139
     atom   61 type  1   force =    -0.00017428    0.00008697   -0.00005141
     atom   62 type  1   force =     0.00054648    0.00013921    0.00014854
     atom   63 type  1   force =    -0.00006134   -0.00088255   -0.00006097
     atom   64 type  1   force =     0.00025094   -0.00020654    0.00003735
     atom   65 type  1   force =    -0.00050685    0.00057354   -0.00026833
     atom   66 type  1   force =    -0.00018625   -0.00008529    0.00008149
     atom   67 type  1   force =     0.00042029   -0.00004042    0.00026945
     atom   68 type  1   force =     0.00002236   -0.00055518   -0.00003496
     atom   69 type  1   force =     0.00071268    0.00093946    0.00014091
     atom   70 type  1   force =    -0.00034767    0.00050762    0.00015362
     atom   71 type  1   force =     0.00050023    0.00008479    0.00039682
     atom   72 type  1   force =    -0.00020750    0.00054270    0.00036964
     atom   73 type  2   force =     0.00009894   -0.00026120    0.00029562

     Total force =     0.005338     Total SCF correction =     0.000052
     Energy error            =      3.9E-05 Ry
     Gradient error          =      9.7E-04 Ry/Bohr

     bfgs converged in  41 scf cycles and  39 bfgs steps
     (criteria: energy <  1.0E-04 Ry, force <  1.0E-03 Ry/Bohr)

     End of BFGS Geometry Optimization

     Final energy             =   -1365.3114968249 Ry

     File ./pwscf.bfgs deleted, as requested
Begin final coordinates

ATOMIC_POSITIONS (angstrom)
C             6.6954493784        0.8303757713        7.7536580212
C             6.8861483801        1.5265258334        9.1076442530
C             6.7994034372        2.8175179925        9.6199789049
C            -0.1380365358        5.6464549425        7.6934389648
C            13.4619265162        4.6344564920        8.7076865950
C            13.4585817522        3.7585670623        9.5853836873
C             6.6965276567        5.6845473706       12.3889074268
C             6.7165622359        4.7101500527       11.3776441181
C             6.7525474637        3.7965310380       10.4875076237
C            -0.1398186406        0.9016052436       12.4423225947
C            -0.1409188907        1.9162302884       11.4299487023
C            13.4572917424        2.7936337937       10.5539525131
C             7.7136525875        6.6910470353        0.8686395673
C             8.7209878792        6.6785681870        1.8881601058
C             9.5924537124        6.6675541554        2.7704498700
C             7.6786960618       -0.0966751284        5.6438459916
C             8.6951768041       13.5194927630        4.6339440060
C             9.5740470130       13.5151654060        3.7579335166
C            12.4379240061        6.6669890319        5.6383573411
C            11.4273411705        6.6615561389        4.6228291300
C            10.5544020975        6.6612393399        3.7418818941
C            12.4344090885       -0.1177070864        0.9009640181
C            11.4229239741       -0.1086462842        1.9178156200
C            10.5443422979       13.5055954817        2.7936395709
C             0.8888416264        7.6976521456        6.6629071717
C             1.8991273434        8.7141261213        6.6546257494
C             2.7628493146        9.6038521595        6.6305067081
C             5.6401086507        7.7115638952       -0.1378538223
C             4.6207441030        8.7197725015       13.4785830780
C             3.7433223794        9.5957120107       13.4870612094
C             5.6061938971       12.4734078644        6.6241879686
C             4.5860005099       11.4674810181        6.6029927814
C             3.7169093235       10.5828792416        6.6114822821
C             0.8832333531       12.4507606056       -0.1292122319
C             1.8966515723       11.4366912200       13.4760271380
C             2.7742422334       10.5610227190       13.4862439098
C             6.6496455084       12.4790183113        5.6138316934
C             6.6621985063       11.4685420074        4.5985058328
C             6.6659537294       10.5817311667        3.7288570835
C            -0.1373624447        7.6950736799        5.6365436978
C            13.4622122735        8.7085790894        4.6229662753
C            13.4648184303        9.5898674853        3.7503920909
C             6.6771717704        7.7161158443        0.8861507670
C             6.6765169978        8.7223958722        1.8991044046
C             6.6716359626        9.6076157284        2.7721738903
C            -0.1403187513       12.4547186403        0.9001304733
C            -0.1372413117       11.4416656170        1.9142297654
C            13.4650709397       10.5619219561        2.7883294553
C             5.6371242649        6.6990412252       12.4312939507
C             4.6231910524        6.6941490713       11.4232367373
C             3.7431684730        6.6877497025       10.5479552132
C             5.6346620363       -0.1471185495        7.6939234584
C             4.6106621205       13.4331567837        8.7008107974
C             3.7245880917       13.4405848030        9.5673448705
C             0.8874950932        6.6737648262        7.6915244291
C             1.8977483870        6.6760071438        8.7073671383
C             2.7749174046        6.6808715131        9.5844501101
C             0.8825646418       13.4717403320       12.4391690334
C             1.8878344754       13.4618149938       11.4181418432
C             2.7579215724       13.4505997619       10.5344157248
C            12.4350465300        5.6449119702        6.6683138585
C            11.4165467977        4.6362580179        6.6779080716
C            10.5383323698        3.7611242720        6.6958878290
C             7.7333946329        5.6895565793       -0.1717837116
C             8.7373517569        4.6711355025       13.4258961888
C             9.6024682896        3.7811292321       13.4321764361
C             7.6832239096        0.8969087935        6.7120941417
C             8.6988557974        1.9130534491        6.7277135138
C             9.5733861448        2.7913786956        6.7115896604
C            12.4357603788        0.9035411787       -0.1301691952
C            11.4244805120        1.9182778326       -0.1397094870
C            10.5566390760        2.8040098347       13.4433501784
O             7.1820890854        0.7554112131       10.0697978004
End final coordinates



     Writing all to output data dir ./pwscf.save/

     init_run     :      5.68s CPU      6.01s WALL (       1 calls)
     electrons    :   2901.65s CPU   3048.76s WALL (      41 calls)
     update_pot   :     52.44s CPU     54.64s WALL (      40 calls)
     forces       :    122.33s CPU    129.14s WALL (      41 calls)

     Called by init_run:
     wfcinit      :      2.58s CPU      2.69s WALL (       1 calls)
     potinit      :      1.51s CPU      1.60s WALL (       1 calls)
     hinit0       :      0.97s CPU      1.01s WALL (       1 calls)

     Called by electrons:
     c_bands      :   1857.14s CPU   1909.53s WALL (     440 calls)
     sum_band     :    463.70s CPU    488.63s WALL (     440 calls)
     v_of_rho     :    263.57s CPU    280.17s WALL (     465 calls)
     newd         :    123.09s CPU    151.60s WALL (     465 calls)
     PAW_pot      :    188.13s CPU    189.10s WALL (     505 calls)
     mix_rho      :     38.53s CPU     41.61s WALL (     440 calls)

     Called by c_bands:
     init_us_2    :     28.94s CPU     29.32s WALL (    1924 calls)
     init_us_2:cp :     28.91s CPU     29.32s WALL (    1924 calls)
     regterg      :   1816.78s CPU   1868.47s WALL (     880 calls)

     Called by *egterg:
     rdiaghg      :     51.84s CPU     52.71s WALL (    3301 calls)
     h_psi        :   1107.16s CPU   1145.58s WALL (    3415 calls)
     s_psi        :    179.31s CPU    180.18s WALL (    3415 calls)
     g_psi        :      3.74s CPU      3.81s WALL (    2533 calls)

     Called by h_psi:
     h_psi:calbec :    177.02s CPU    178.95s WALL (    3415 calls)
     vloc_psi     :    741.03s CPU    776.50s WALL (    3415 calls)
     add_vuspsi   :    178.36s CPU    179.28s WALL (    3415 calls)

     General routines
     calbec       :    280.99s CPU    284.03s WALL (    4703 calls)
     fft          :    150.09s CPU    166.65s WALL (   10165 calls)
     ffts         :      5.26s CPU      6.00s WALL (    1810 calls)
     fftw         :    568.97s CPU    599.81s WALL (  442496 calls)
     interpolate  :     20.02s CPU     21.72s WALL (     930 calls)

     Parallel routines

     PWSCF        :  52m19.87s CPU  55m 7.92s WALL


   This run was terminated on:  18:47:44  24May2025            

=------------------------------------------------------------------------------=
   JOB DONE.
=------------------------------------------------------------------------------=
