ITEM: TIMESTEP
0
ITEM: NUMBER OF ATOMS
49
ITEM: BOX BOUNDS pp pp pp
0.0000000000000000e+00 1.1000000000000000e+01
0.0000000000000000e+00 1.1002000000000001e+01
0.0000000000000000e+00 1.1000000000000000e+01
ITEM: ATOMS id type x y z 
10 1 4.603 4.603 4.603 
11 1 3.085 3.085 3.085 
12 1 3.796 3.796 3.796 
46 1 0.726 0.725 0.725 
47 1 2.26 2.259 2.26 
48 1 1.551 1.55 1.55 
19 1 4.546 4.545 6.226 
20 1 3.013 3.013 7.764 
21 1 3.721 3.721 7.053 
31 1 0.668 0.667 10.103 
32 1 2.187 2.187 8.589 
33 1 1.476 1.475 9.298 
16 1 4.546 6.225 4.546 
17 1 3.013 7.765 3.013 
18 1 3.721 7.053 3.722 
25 1 0.668 10.103 0.668 
26 1 2.188 8.589 2.188 
27 1 1.476 9.298 1.476 
4 1 4.608 6.169 6.169 
5 1 3.086 7.684 7.684 
6 1 3.799 6.974 6.974 
37 1 0.729 10.046 10.046 
38 1 2.259 8.509 8.508 
39 1 1.552 9.219 9.219 
13 1 6.225 4.546 4.546 
14 1 7.764 3.013 3.013 
15 1 7.053 3.721 3.722 
28 1 10.102 0.667 0.668 
29 1 8.589 2.187 2.188 
30 1 9.298 1.475 1.476 
49 2 7.24 4.503 4.95 
1 1 6.168 4.608 6.169 
2 1 7.684 3.086 7.684 
3 1 6.974 3.799 6.974 
40 1 10.045 0.728 10.046 
41 1 8.508 2.259 8.508 
42 1 9.218 1.551 9.218 
7 1 6.169 6.169 4.608 
8 1 7.684 7.684 3.086 
9 1 6.974 6.974 3.799 
43 1 10.046 10.047 0.729 
44 1 8.508 8.509 2.259 
45 1 9.219 9.219 1.552 
22 1 6.229 6.229 6.229 
23 1 7.764 7.765 7.765 
24 1 7.055 7.056 7.055 
34 1 10.108 10.108 10.107 
35 1 8.59 8.59 8.59 
36 1 9.301 9.301 9.3 
ITEM: TIMESTEP
10
ITEM: NUMBER OF ATOMS
49
ITEM: BOX BOUNDS pp pp pp
0.0000000000000000e+00 1.1000000000000000e+01
0.0000000000000000e+00 1.1002000000000001e+01
0.0000000000000000e+00 1.1000000000000000e+01
ITEM: ATOMS id type x y z 
10 1 4.54408 4.58843 4.57969 
11 1 3.07015 3.05683 3.06852 
12 1 3.76638 3.7899 3.76626 
46 1 0.738746 0.730772 0.734667 
47 1 2.26906 2.26981 2.27083 
48 1 1.56461 1.56015 1.56062 
19 1 4.51395 4.53781 6.2386 
20 1 2.99623 2.99142 7.78571 
21 1 3.6905 3.70197 7.07098 
31 1 0.670977 0.673215 10.0998 
32 1 2.18255 2.18358 8.59437 
33 1 1.47364 1.47105 9.29865 
16 1 4.53793 6.2353 4.54076 
17 1 3.00042 7.77668 3.00017 
18 1 3.70656 7.06961 3.70714 
25 1 0.674126 10.1 0.674704 
26 1 2.194 8.58637 2.19229 
27 1 1.47977 9.2877 1.48362 
4 1 4.58986 6.19657 6.17893 
5 1 3.07308 7.68531 7.6988 
6 1 3.79352 7.0031 6.97551 
37 1 0.735815 10.0377 10.0391 
38 1 2.26998 8.49857 8.49663 
39 1 1.56488 9.20465 9.20718 
13 1 6.19171 4.59918 4.57474 
14 1 7.79746 2.95525 2.95418 
15 1 7.09608 3.65375 3.68611 
28 1 10.0881 0.678287 0.678632 
29 1 8.5928 2.18957 2.17673 
30 1 9.30855 1.47113 1.47238 
49 2 7.39472 4.49586 4.85341 
1 1 6.11861 4.62228 6.31411 
2 1 7.71179 3.06284 7.68655 
3 1 6.97485 3.78725 7.02376 
40 1 10.0362 0.735375 10.0318 
41 1 8.49997 2.26902 8.49911 
42 1 9.20736 1.55908 9.20655 
7 1 6.17736 6.23415 4.58824 
8 1 7.70418 7.6921 3.06805 
9 1 6.98377 7.00473 3.78572 
43 1 10.0403 10.0335 0.735243 
44 1 8.49779 8.49962 2.26933 
45 1 9.20817 9.20606 1.56291 
22 1 6.23111 6.23254 6.24229 
23 1 7.77882 7.77902 7.7776 
24 1 7.07042 7.07269 7.07287 
34 1 10.1012 10.1016 10.1036 
35 1 8.58677 8.58415 8.5876 
36 1 9.29303 9.29848 9.29093 
ITEM: TIMESTEP
20
ITEM: NUMBER OF ATOMS
49
ITEM: BOX BOUNDS pp pp pp
0.0000000000000000e+00 1.1000000000000000e+01
0.0000000000000000e+00 1.1002000000000001e+01
0.0000000000000000e+00 1.1000000000000000e+01
ITEM: ATOMS id type x y z 
10 1 4.53136 4.59509 4.58803 
11 1 3.07264 3.06024 3.06042 
12 1 3.75937 3.78327 3.77936 
46 1 0.743603 0.731051 0.735915 
47 1 2.26645 2.26585 2.26663 
48 1 1.5611 1.55507 1.5579 
19 1 4.51313 4.54193 6.24234 
20 1 2.99532 2.99267 7.78161 
21 1 3.69379 3.70546 7.07324 
31 1 0.673288 0.66992 10.0948 
32 1 2.18502 2.18442 8.59194 
33 1 1.47586 1.4749 9.29745 
16 1 4.52798 6.24478 4.53931 
17 1 2.99989 7.77705 2.99875 
18 1 3.70604 7.07056 3.70943 
25 1 0.679332 10.0902 0.676699 
26 1 2.19061 8.58657 2.19097 
27 1 1.48139 9.29177 1.48084 
4 1 4.58737 6.19903 6.18073 
5 1 3.07703 7.6928 7.69365 
6 1 3.78764 6.98925 6.98206 
37 1 0.73859 10.0329 10.0364 
38 1 2.26862 8.49913 8.49931 
39 1 1.56291 9.20682 9.20813 
13 1 6.22997 4.59457 4.57302 
14 1 7.78758 2.94686 2.94761 
15 1 7.06668 3.62916 3.67494 
28 1 10.0985 0.667931 0.670908 
29 1 8.60592 2.18486 2.16371 
30 1 9.31429 1.46524 1.45779 
49 2 7.41061 4.5216 4.89745 
1 1 6.11518 4.62068 6.31889 
2 1 7.71139 3.06367 7.67677 
3 1 6.96082 3.79699 7.03807 
40 1 10.0349 0.733719 10.0283 
41 1 8.50233 2.26657 8.49867 
42 1 9.21006 1.55823 9.20643 
7 1 6.16379 6.25255 4.59656 
8 1 7.70789 7.69354 3.06475 
9 1 6.98383 7.0109 3.78445 
43 1 10.038 10.0265 0.736838 
44 1 8.50112 8.50232 2.26618 
45 1 9.21262 9.20825 1.55954 
22 1 6.23163 6.24016 6.25279 
23 1 7.779 7.77836 7.77555 
24 1 7.0656 7.07032 7.07341 
34 1 10.099 10.0971 10.0959 
35 1 8.5872 8.58725 8.58728 
36 1 9.29577 9.29594 9.2942 
ITEM: TIMESTEP
30
ITEM: NUMBER OF ATOMS
49
ITEM: BOX BOUNDS pp pp pp
0.0000000000000000e+00 1.1000000000000000e+01
0.0000000000000000e+00 1.1002000000000001e+01
0.0000000000000000e+00 1.1000000000000000e+01
ITEM: ATOMS id type x y z 
10 1 4.52637 4.60679 4.61109 
11 1 3.08036 3.06674 3.06609 
12 1 3.75841 3.79396 3.79097 
46 1 0.75805 0.720217 0.726428 
47 1 2.26796 2.26946 2.26924 
48 1 1.57402 1.55274 1.55579 
19 1 4.50969 4.54807 6.23486 
20 1 2.99047 2.99358 7.78287 
21 1 3.69213 3.70651 7.07494 
31 1 0.677668 0.666967 10.0842 
32 1 2.18927 2.18363 8.58957 
33 1 1.47452 1.47819 9.29342 
16 1 4.5256 6.23106 4.54695 
17 1 3.00038 7.78266 2.99575 
18 1 3.69188 7.07001 3.71206 
25 1 0.690744 10.0835 0.671986 
26 1 2.19605 8.58551 2.19214 
27 1 1.48137 9.28513 1.48111 
4 1 4.58209 6.19904 6.18749 
5 1 3.075 7.69897 7.69362 
6 1 3.78297 6.98811 6.98638 
37 1 0.742045 10.0262 10.0303 
38 1 2.27333 8.49368 8.49706 
39 1 1.56616 9.20404 9.20297 
13 1 6.3633 4.54434 4.555 
14 1 7.73932 2.9265 2.95431 
15 1 6.9309 3.57607 3.59659 
28 1 10.1279 0.637241 0.637285 
29 1 8.62844 2.17774 2.14392 
30 1 9.32636 1.47588 1.42508 
49 2 7.42058 4.63599 5.07277 
1 1 6.11643 4.63419 6.31811 
2 1 7.70222 3.06563 7.68473 
3 1 6.9525 3.8039 7.04941 
40 1 10.0413 0.725543 10.011 
41 1 8.50111 2.27112 8.48668 
42 1 9.21016 1.55953 9.19156 
7 1 6.14217 6.27704 4.61248 
8 1 7.7134 7.68691 3.06403 
9 1 6.9658 7.03924 3.79439 
43 1 10.0479 10.0093 0.725899 
44 1 8.50277 8.49771 2.27094 
45 1 9.21065 9.1964 1.55207 
22 1 6.21594 6.25503 6.26246 
23 1 7.78032 7.7832 7.77624 
24 1 7.0645 7.0692 7.08386 
34 1 10.0991 10.0904 10.0869 
35 1 8.58673 8.58433 8.58481 
36 1 9.29562 9.29675 9.28823 
ITEM: TIMESTEP
40
ITEM: NUMBER OF ATOMS
49
ITEM: BOX BOUNDS pp pp pp
0.0000000000000000e+00 1.1000000000000000e+01
0.0000000000000000e+00 1.1002000000000001e+01
0.0000000000000000e+00 1.1000000000000000e+01
ITEM: ATOMS id type x y z 
10 1 4.52956 4.60461 4.60711 
11 1 3.07739 3.06907 3.06571 
12 1 3.76079 3.78974 3.79158 
46 1 0.758538 0.72069 0.726551 
47 1 2.26909 2.2676 2.26743 
48 1 1.57218 1.55292 1.55573 
19 1 4.51556 4.54117 6.23788 
20 1 2.99239 2.99629 7.78253 
21 1 3.6914 3.70664 7.07154 
31 1 0.67797 0.667985 10.087 
32 1 2.18567 2.18497 8.59085 
33 1 1.47796 1.47135 9.29385 
16 1 4.52518 6.23226 4.54059 
17 1 3.00137 7.77806 3.00274 
18 1 3.70042 7.06618 3.71183 
25 1 0.68598 10.0841 0.671853 
26 1 2.19178 8.58537 2.1912 
27 1 1.48588 9.28982 1.47721 
4 1 4.5799 6.19821 6.19108 
5 1 3.07568 7.69555 7.69276 
6 1 3.78617 6.98966 6.98283 
37 1 0.743582 10.0263 10.0283 
38 1 2.27201 8.49593 8.49736 
39 1 1.56477 9.20386 9.206 
13 1 6.36274 4.54945 4.56502 
14 1 7.73157 2.93203 2.94154 
15 1 6.93458 3.57815 3.60033 
28 1 10.1236 0.648508 0.640535 
29 1 8.62601 2.17681 2.14106 
30 1 9.32988 1.46374 1.43686 
49 2 7.41591 4.63552 5.07057 
1 1 6.11798 4.63352 6.32211 
2 1 7.69389 3.0727 7.68458 
3 1 6.94886 3.80884 7.04265 
40 1 10.0398 0.727851 10.0097 
41 1 8.50296 2.26846 8.4879 
42 1 9.21212 1.55767 9.19031 
7 1 6.14274 6.27963 4.61107 
8 1 7.70525 7.69288 3.06894 
9 1 6.97047 7.02653 3.79561 
43 1 10.0462 10.0115 0.725477 
44 1 8.50437 8.49878 2.26555 
45 1 9.2166 9.19783 1.55322 
22 1 6.2185 6.24999 6.2614 
23 1 7.78011 7.77927 7.77766 
24 1 7.06116 7.07476 7.08022 
34 1 10.0997 10.091 10.0869 
35 1 8.58694 8.58782 8.5835 
36 1 9.29881 9.29249 9.29182 
ITEM: TIMESTEP
50
ITEM: NUMBER OF ATOMS
49
ITEM: BOX BOUNDS pp pp pp
0.0000000000000000e+00 1.1000000000000000e+01
0.0000000000000000e+00 1.1002000000000001e+01
0.0000000000000000e+00 1.1000000000000000e+01
ITEM: ATOMS id type x y z 
10 1 4.53029 4.60381 4.607 
11 1 3.07696 3.06833 3.0658 
12 1 3.76078 3.79075 3.79099 
46 1 0.758629 0.720777 0.726627 
47 1 2.26951 2.26741 2.26731 
48 1 1.57183 1.55322 1.55585 
19 1 4.51588 4.5408 6.2377 
20 1 2.99196 2.99644 7.7823 
21 1 3.6918 3.70631 7.0721 
31 1 0.678016 0.667801 10.0869 
32 1 2.18595 2.18459 8.59088 
33 1 1.4775 1.47201 9.29373 
16 1 4.52559 6.23194 4.54057 
17 1 3.00098 7.77785 3.00322 
18 1 3.70142 7.066 3.71146 
25 1 0.686062 10.0841 0.671866 
26 1 2.19226 8.58566 2.19091 
27 1 1.48513 9.28919 1.47775 
4 1 4.57999 6.1983 6.19058 
5 1 3.07583 7.6959 7.69238 
6 1 3.78602 6.9888 6.9833 
37 1 0.743683 10.0262 10.0282 
38 1 2.27217 8.49569 8.49727 
39 1 1.56497 9.20381 9.20564 
13 1 6.36261 4.54975 4.5657 
14 1 7.73012 2.93274 2.93972 
15 1 6.93528 3.5786 3.60082 
28 1 10.1237 0.649432 0.640535 
29 1 8.62631 2.17696 2.14124 
30 1 9.32863 1.4622 1.43807 
49 2 7.41548 4.63541 5.07055 
1 1 6.11772 4.63337 6.32246 
2 1 7.69296 3.07288 7.68528 
3 1 6.94963 3.8093 7.04215 
40 1 10.04 0.727876 10.0099 
41 1 8.50297 2.26838 8.4877 
42 1 9.21225 1.55747 9.19017 
7 1 6.14325 6.27899 4.61097 
8 1 7.70533 7.69294 3.06935 
9 1 6.96984 7.02724 3.79516 
43 1 10.0462 10.012 0.725305 
44 1 8.50451 8.49864 2.26513 
45 1 9.21694 9.19798 1.55354 
22 1 6.21843 6.25008 6.26142 
23 1 7.78007 7.77915 7.77798 
24 1 7.06116 7.07523 7.07981 
34 1 10.0998 10.0907 10.0877 
35 1 8.5874 8.58718 8.58407 
36 1 9.29828 9.29378 9.29083 
ITEM: TIMESTEP
60
ITEM: NUMBER OF ATOMS
49
ITEM: BOX BOUNDS pp pp pp
0.0000000000000000e+00 1.1000000000000000e+01
0.0000000000000000e+00 1.1002000000000001e+01
0.0000000000000000e+00 1.1000000000000000e+01
ITEM: ATOMS id type x y z 
10 1 4.53072 4.60341 4.60668 
11 1 3.07672 3.06838 3.06585 
12 1 3.76081 3.79059 3.79079 
46 1 0.758558 0.720935 0.726715 
47 1 2.26968 2.26736 2.26726 
48 1 1.57185 1.55322 1.55582 
19 1 4.51618 4.54049 6.23762 
20 1 2.99157 2.99657 7.78216 
21 1 3.69227 3.70611 7.07236 
31 1 0.677885 0.667708 10.0869 
32 1 2.18595 2.18456 8.59082 
33 1 1.47755 1.472 9.2938 
16 1 4.52591 6.23167 4.54048 
17 1 3.0007 7.77758 3.00367 
18 1 3.70219 7.06601 3.71107 
25 1 0.685928 10.0841 0.671878 
26 1 2.19239 8.58565 2.19094 
27 1 1.4851 9.28906 1.47779 
4 1 4.57999 6.19804 6.19044 
5 1 3.07591 7.69585 7.69225 
6 1 3.78605 6.98864 6.98324 
37 1 0.743743 10.0262 10.0282 
38 1 2.27223 8.49563 8.49721 
39 1 1.56502 9.20378 9.20557 
13 1 6.3625 4.55001 4.56628 
14 1 7.72893 2.93323 2.93807 
15 1 6.93579 3.57908 3.60129 
28 1 10.1236 0.649979 0.640842 
29 1 8.62633 2.17683 2.14179 
30 1 9.32793 1.46143 1.43844 
49 2 7.41513 4.63532 5.07059 
1 1 6.11784 4.63343 6.32249 
2 1 7.69268 3.07312 7.68563 
3 1 6.9494 3.80946 7.04232 
40 1 10.0401 0.727902 10.01 
41 1 8.50301 2.26824 8.48752 
42 1 9.21228 1.55745 9.19004 
7 1 6.14346 6.2787 4.61079 
8 1 7.70516 7.69332 3.06947 
9 1 6.96978 7.02732 3.79518 
43 1 10.0463 10.0125 0.725346 
44 1 8.50467 8.49848 2.26499 
45 1 9.21701 9.19805 1.55355 
22 1 6.21838 6.25029 6.26125 
23 1 7.78001 7.77916 7.77805 
24 1 7.06114 7.07534 7.07976 
34 1 10.0999 10.0908 10.0879 
35 1 8.58752 8.58717 8.58411 
36 1 9.29832 9.29389 9.29084 
ITEM: TIMESTEP
70
ITEM: NUMBER OF ATOMS
49
ITEM: BOX BOUNDS pp pp pp
0.0000000000000000e+00 1.1000000000000000e+01
0.0000000000000000e+00 1.1002000000000001e+01
0.0000000000000000e+00 1.1000000000000000e+01
ITEM: ATOMS id type x y z 
10 1 4.53077 4.60336 4.60665 
11 1 3.07669 3.06838 3.06585 
12 1 3.76082 3.79057 3.79078 
46 1 0.75855 0.720951 0.726717 
47 1 2.2697 2.26735 2.26725 
48 1 1.57184 1.55321 1.55583 
19 1 4.51624 4.54045 6.23763 
20 1 2.99157 2.99658 7.78216 
21 1 3.69227 3.7061 7.07234 
31 1 0.677905 0.667713 10.0869 
32 1 2.18598 2.18458 8.59087 
33 1 1.4775 1.47196 9.29371 
16 1 4.52595 6.23164 4.54046 
17 1 3.00067 7.77755 3.00371 
18 1 3.70227 7.06603 3.71103 
25 1 0.685896 10.0841 0.671876 
26 1 2.19237 8.58563 2.19095 
27 1 1.48514 9.28909 1.47779 
4 1 4.57999 6.198 6.19044 
5 1 3.07592 7.69583 7.69226 
6 1 3.78604 6.98865 6.9832 
37 1 0.743744 10.0262 10.0282 
38 1 2.27223 8.49562 8.4972 
39 1 1.56503 9.20379 9.20557 
13 1 6.36249 4.55004 4.56634 
14 1 7.7288 2.93327 2.9379 
15 1 6.93584 3.57913 3.60134 
28 1 10.1236 0.650025 0.640869 
29 1 8.62631 2.1768 2.14183 
30 1 9.32791 1.46138 1.4385 
49 2 7.4151 4.6353 5.07059 
1 1 6.11783 4.63343 6.32251 
2 1 7.69263 3.07313 7.68568 
3 1 6.94941 3.80949 7.04232 
40 1 10.0401 0.727904 10.01 
41 1 8.50301 2.26822 8.4875 
42 1 9.21228 1.55746 9.19003 
7 1 6.14347 6.2787 4.61077 
8 1 7.70511 7.69338 3.06948 
9 1 6.96982 7.02728 3.79519 
43 1 10.0463 10.0125 0.725353 
44 1 8.50469 8.49846 2.26498 
45 1 9.21702 9.19806 1.55355 
22 1 6.21839 6.25031 6.26123 
23 1 7.78001 7.77916 7.77805 
24 1 7.06111 7.07535 7.07978 
34 1 10.0999 10.0909 10.0879 
35 1 8.58753 8.58717 8.5841 
36 1 9.29833 9.29388 9.29086 
ITEM: TIMESTEP
80
ITEM: NUMBER OF ATOMS
49
ITEM: BOX BOUNDS pp pp pp
0.0000000000000000e+00 1.1000000000000000e+01
0.0000000000000000e+00 1.1002000000000001e+01
0.0000000000000000e+00 1.1000000000000000e+01
ITEM: ATOMS id type x y z 
10 1 4.53119 4.60299 4.6063 
11 1 3.07644 3.06847 3.06579 
12 1 3.76086 3.79032 3.79076 
46 1 0.758441 0.721082 0.726771 
47 1 2.2698 2.26727 2.26715 
48 1 1.57186 1.55314 1.55576 
19 1 4.5167 4.54009 6.23766 
20 1 2.99142 2.99669 7.78212 
21 1 3.69238 3.706 7.07235 
31 1 0.677882 0.667596 10.087 
32 1 2.18603 2.18454 8.5909 
33 1 1.47741 1.47196 9.29363 
16 1 4.5264 6.23138 4.54021 
17 1 3.00055 7.77733 3.00398 
18 1 3.7027 7.066 3.71094 
25 1 0.685861 10.0841 0.671864 
26 1 2.19252 8.58565 2.19098 
27 1 1.48506 9.28889 1.47782 
4 1 4.57998 6.1977 6.19033 
5 1 3.07599 7.69576 7.69213 
6 1 3.78611 6.98852 6.98313 
37 1 0.7438 10.0262 10.0282 
38 1 2.27226 8.49558 8.49714 
39 1 1.56509 9.20377 9.20553 
13 1 6.36237 4.55029 4.56691 
14 1 7.72756 2.93366 2.93629 
15 1 6.93636 3.57965 3.60175 
28 1 10.1234 0.650358 0.641206 
29 1 8.62608 2.17643 2.14236 
30 1 9.3277 1.46115 1.43884 
49 2 7.4148 4.6352 5.07064 
1 1 6.11789 4.63349 6.32256 
2 1 7.69234 3.07334 7.68602 
3 1 6.9492 3.8097 7.04257 
40 1 10.0402 0.727949 10.01 
41 1 8.50304 2.26807 8.48727 
42 1 9.21231 1.55747 9.18993 
7 1 6.14367 6.27843 4.61055 
8 1 7.70491 7.69371 3.06954 
9 1 6.96983 7.02745 3.79527 
43 1 10.0463 10.0129 0.725436 
44 1 8.50484 8.49828 2.26485 
45 1 9.21707 9.19811 1.5536 
22 1 6.21833 6.25049 6.2611 
23 1 7.77996 7.77917 7.77813 
24 1 7.06109 7.07549 7.07971 
34 1 10.1 10.091 10.088 
35 1 8.58765 8.58718 8.58414 
36 1 9.29841 9.29395 9.29088 
ITEM: TIMESTEP
90
ITEM: NUMBER OF ATOMS
49
ITEM: BOX BOUNDS pp pp pp
0.0000000000000000e+00 1.1000000000000000e+01
0.0000000000000000e+00 1.1002000000000001e+01
0.0000000000000000e+00 1.1000000000000000e+01
ITEM: ATOMS id type x y z 
10 1 4.54875 4.58459 4.59352 
11 1 3.06361 3.06927 3.06436 
12 1 3.76236 3.78213 3.78494 
46 1 0.753998 0.724317 0.728773 
47 1 2.275 2.26229 2.26186 
48 1 1.5715 1.55083 1.55256 
19 1 4.53451 4.52426 6.23863 
20 1 2.98509 3.00206 7.78021 
21 1 3.69697 3.70164 7.07185 
31 1 0.675581 0.663604 10.0865 
32 1 2.18562 2.1832 8.59107 
33 1 1.47698 1.47026 9.29287 
16 1 4.54837 6.22113 4.52753 
17 1 3.00063 7.77065 3.01373 
18 1 3.71218 7.05838 3.70963 
25 1 0.685274 10.082 0.671069 
26 1 2.19616 8.58283 2.19362 
27 1 1.48824 9.28494 1.48005 
4 1 4.58028 6.18359 6.18334 
5 1 3.08008 7.69202 7.68621 
6 1 3.78725 6.98117 6.97796 
37 1 0.746762 10.0265 10.0299 
38 1 2.27427 8.4941 8.49406 
39 1 1.56784 9.20128 9.20325 
13 1 6.35877 4.55794 4.58879 
14 1 7.661 2.92852 2.87842 
15 1 6.96296 3.61691 3.60398 
28 1 10.1173 0.66154 0.652633 
29 1 8.61186 2.16523 2.16038 
30 1 9.31929 1.45922 1.45298 
49 2 7.40677 4.62986 5.07806 
1 1 6.12061 4.64042 6.33255 
2 1 7.67889 3.08128 7.70572 
3 1 6.94224 3.81858 7.05652 
40 1 10.0424 0.73203 10.0126 
41 1 8.50526 2.26094 8.47698 
42 1 9.21445 1.55575 9.18543 
7 1 6.1532 6.2749 4.60353 
8 1 7.69649 7.71206 3.07316 
9 1 6.96898 7.03456 3.7952 
43 1 10.0466 10.0279 0.731872 
44 1 8.51262 8.49072 2.25903 
45 1 9.22092 9.2006 1.55382 
22 1 6.21529 6.26035 6.25742 
23 1 7.77881 7.7817 7.78189 
24 1 7.0596 7.0817 7.08046 
34 1 10.1046 10.0994 10.089 
35 1 8.59311 8.58788 8.58631 
36 1 9.30264 9.29704 9.29175 
ITEM: TIMESTEP
100
ITEM: NUMBER OF ATOMS
49
ITEM: BOX BOUNDS pp pp pp
0.0000000000000000e+00 1.1000000000000000e+01
0.0000000000000000e+00 1.1002000000000001e+01
0.0000000000000000e+00 1.1000000000000000e+01
ITEM: ATOMS id type x y z 
10 1 4.54843 4.58463 4.59411 
11 1 3.06359 3.06903 3.06452 
12 1 3.76247 3.7824 3.7845 
46 1 0.754095 0.723854 0.72864 
47 1 2.275 2.26234 2.26174 
48 1 1.57143 1.55064 1.55254 
19 1 4.53375 4.52467 6.23842 
20 1 2.98519 3.002 7.78023 
21 1 3.69679 3.70168 7.07176 
31 1 0.675846 0.663672 10.0861 
32 1 2.18557 2.18337 8.59104 
33 1 1.47702 1.4701 9.2927 
16 1 4.54761 6.221 4.52767 
17 1 3.0008 7.77067 3.01361 
18 1 3.71195 7.0582 3.7097 
25 1 0.685678 10.0815 0.671048 
26 1 2.19612 8.58264 2.19372 
27 1 1.48836 9.28498 1.48021 
4 1 4.58025 6.18363 6.18309 
5 1 3.08019 7.69189 7.68615 
6 1 3.78706 6.98102 6.97765 
37 1 0.746407 10.026 10.0301 
38 1 2.27405 8.49389 8.49384 
39 1 1.56845 9.20156 9.20344 
13 1 6.35948 4.55726 4.58775 
14 1 7.66041 2.92716 2.87925 
15 1 6.9623 3.61807 3.6023 
28 1 10.1178 0.661262 0.652366 
29 1 8.6115 2.16531 2.15994 
30 1 9.31869 1.4593 1.45235 
49 2 7.40785 4.62971 5.07912 
1 1 6.12074 4.64118 6.33372 
2 1 7.67911 3.08097 7.70617 
3 1 6.94233 3.81861 7.05738 
40 1 10.0422 0.732105 10.0127 
41 1 8.50542 2.26085 8.47697 
42 1 9.21437 1.55562 9.18544 
7 1 6.15291 6.276 4.60422 
8 1 7.6968 7.71231 3.07297 
9 1 6.96887 7.03514 3.79492 
43 1 10.0467 10.0275 0.731729 
44 1 8.51274 8.49095 2.25895 
45 1 9.22115 9.20057 1.55361 
22 1 6.21525 6.26052 6.25774 
23 1 7.77899 7.78189 7.78203 
24 1 7.05952 7.08199 7.0807 
34 1 10.1047 10.0992 10.0889 
35 1 8.59328 8.58791 8.58649 
36 1 9.30274 9.29727 9.29173 
ITEM: TIMESTEP
110
ITEM: NUMBER OF ATOMS
49
ITEM: BOX BOUNDS pp pp pp
0.0000000000000000e+00 1.1000000000000000e+01
0.0000000000000000e+00 1.1002000000000001e+01
0.0000000000000000e+00 1.1000000000000000e+01
ITEM: ATOMS id type x y z 
10 1 4.54835 4.58466 4.5943 
11 1 3.06371 3.06899 3.06445 
12 1 3.76233 3.78242 3.78461 
46 1 0.754152 0.723603 0.728568 
47 1 2.27494 2.26232 2.26167 
48 1 1.57144 1.55058 1.5525 
19 1 4.53333 4.5249 6.23825 
20 1 2.98518 3.00195 7.78017 
21 1 3.69684 3.70175 7.07183 
31 1 0.675926 0.663652 10.0859 
32 1 2.1855 2.18344 8.59096 
33 1 1.47712 1.47007 9.29273 
16 1 4.54718 6.22094 4.52774 
17 1 3.00088 7.77072 3.0135 
18 1 3.71177 7.05814 3.70972 
25 1 0.68599 10.0813 0.670994 
26 1 2.19619 8.5826 2.19374 
27 1 1.48827 9.2849 1.48035 
4 1 4.58018 6.18363 6.183 
5 1 3.08018 7.6918 7.68607 
6 1 3.78707 6.981 6.97758 
37 1 0.746403 10.0259 10.0302 
38 1 2.27411 8.49392 8.49378 
39 1 1.56843 9.20147 9.20348 
13 1 6.35989 4.55698 4.58724 
14 1 7.66019 2.9265 2.87968 
15 1 6.96189 3.6186 3.60144 
28 1 10.118 0.661244 0.65211 
29 1 8.61125 2.16541 2.15954 
30 1 9.31852 1.45916 1.45225 
49 2 7.40836 4.62963 5.07968 
1 1 6.12076 4.64161 6.33438 
2 1 7.6792 3.08087 7.70646 
3 1 6.94241 3.81856 7.05764 
40 1 10.0421 0.732118 10.0127 
41 1 8.50547 2.2608 8.47697 
42 1 9.2144 1.55556 9.18549 
7 1 6.15278 6.27655 4.60454 
8 1 7.69691 7.7124 3.0728 
9 1 6.9689 7.03547 3.79493 
43 1 10.0469 10.0273 0.731743 
44 1 8.51289 8.49106 2.25903 
45 1 9.22106 9.20054 1.55331 
22 1 6.21519 6.26054 6.25799 
23 1 7.77901 7.78193 7.78219 
24 1 7.05958 7.08223 7.08064 
34 1 10.1048 10.099 10.089 
35 1 8.59335 8.58787 8.58662 
36 1 9.30282 9.29749 9.29161 
ITEM: TIMESTEP
120
ITEM: NUMBER OF ATOMS
49
ITEM: BOX BOUNDS pp pp pp
0.0000000000000000e+00 1.1000000000000000e+01
0.0000000000000000e+00 1.1002000000000001e+01
0.0000000000000000e+00 1.1000000000000000e+01
ITEM: ATOMS id type x y z 
10 1 4.54692 4.58537 4.59848 
11 1 3.06507 3.06866 3.06367 
12 1 3.76194 3.78185 3.78549 
46 1 0.755631 0.71906 0.72662 
47 1 2.27348 2.26216 2.26018 
48 1 1.57186 1.54865 1.55129 
19 1 4.52747 4.52934 6.23583 
20 1 2.98652 3.00085 7.78011 
21 1 3.69486 3.70343 7.07079 
31 1 0.678437 0.66267 10.0827 
32 1 2.18513 2.18491 8.59002 
33 1 1.47759 1.46981 9.29138 
16 1 4.53895 6.21882 4.52957 
17 1 3.00219 7.7711 3.01174 
18 1 3.70936 7.05667 3.71017 
25 1 0.690431 10.0774 0.671474 
26 1 2.19602 8.58117 2.19611 
27 1 1.48986 9.28329 1.48057 
4 1 4.57755 6.18413 6.18108 
5 1 3.07981 7.69052 7.68504 
6 1 3.78606 6.98014 6.97571 
37 1 0.747089 10.0227 10.0313 
38 1 2.27523 8.49375 8.49234 
39 1 1.56931 9.19991 9.20325 
13 1 6.36942 4.55518 4.57835 
14 1 7.65509 2.91545 2.88584 
15 1 6.95256 3.62696 3.58456 
28 1 10.1206 0.660013 0.649499 
29 1 8.60422 2.16403 2.15229 
30 1 9.31585 1.4591 1.44805 
49 2 7.41671 4.62762 5.09226 
1 1 6.12091 4.64849 6.34555 
2 1 7.68003 3.07855 7.71084 
3 1 6.94331 3.82041 7.06599 
40 1 10.0412 0.732065 10.0131 
41 1 8.50655 2.2592 8.4768 
42 1 9.21507 1.55441 9.18656 
7 1 6.15013 6.2863 4.61072 
8 1 7.69953 7.71427 3.07022 
9 1 6.96827 7.04257 3.79471 
43 1 10.0491 10.0229 0.729783 
44 1 8.51413 8.49318 2.25866 
45 1 9.22247 9.20035 1.55051 
22 1 6.21471 6.26206 6.26177 
23 1 7.78015 7.78405 7.78452 
24 1 7.05978 7.08592 7.082 
34 1 10.1061 10.0976 10.0883 
35 1 8.5946 8.589 8.58769 
36 1 9.3048 9.29801 9.2926 
ITEM: TIMESTEP
130
ITEM: NUMBER OF ATOMS
49
ITEM: BOX BOUNDS pp pp pp
0.0000000000000000e+00 1.1000000000000000e+01
0.0000000000000000e+00 1.1002000000000001e+01
0.0000000000000000e+00 1.1000000000000000e+01
ITEM: ATOMS id type x y z 
10 1 4.54716 4.58515 4.59842 
11 1 3.06505 3.06867 3.0637 
12 1 3.76205 3.78183 3.78546 
46 1 0.755717 0.719002 0.726565 
47 1 2.27348 2.2621 2.26017 
48 1 1.57184 1.54871 1.55119 
19 1 4.52762 4.52934 6.23596 
20 1 2.9866 3.00097 7.78016 
21 1 3.69471 3.70327 7.07062 
31 1 0.678565 0.662542 10.0828 
32 1 2.1852 2.18489 8.5901 
33 1 1.4774 1.46985 9.29119 
16 1 4.53894 6.21871 4.52954 
17 1 3.00215 7.77108 3.01167 
18 1 3.70938 7.05667 3.71022 
25 1 0.690519 10.0774 0.671401 
26 1 2.1961 8.58114 2.19612 
27 1 1.48977 9.28322 1.48068 
4 1 4.57746 6.18422 6.18115 
5 1 3.07973 7.69053 7.68501 
6 1 3.78605 6.98014 6.97575 
37 1 0.747256 10.0226 10.0312 
38 1 2.27525 8.49367 8.49234 
39 1 1.56941 9.19997 9.20313 
13 1 6.36972 4.5557 4.57844 
14 1 7.6549 2.91578 2.88549 
15 1 6.95228 3.62678 3.58462 
28 1 10.1208 0.660211 0.649755 
29 1 8.60414 2.1639 2.15233 
30 1 9.3153 1.45881 1.44776 
49 2 7.4165 4.62752 5.09251 
1 1 6.12088 4.64863 6.34554 
2 1 7.67987 3.07868 7.71099 
3 1 6.94329 3.82049 7.06593 
40 1 10.0413 0.732169 10.0133 
41 1 8.50654 2.25923 8.47694 
42 1 9.21515 1.55419 9.18631 
7 1 6.14983 6.28635 4.6105 
8 1 7.69897 7.71453 3.07 
9 1 6.96915 7.04222 3.79532 
43 1 10.0489 10.0229 0.729547 
44 1 8.51387 8.49316 2.2584 
45 1 9.223 9.20037 1.55095 
22 1 6.21472 6.26227 6.26164 
23 1 7.78004 7.7842 7.78427 
24 1 7.05975 7.08563 7.08237 
34 1 10.1061 10.0976 10.0882 
35 1 8.59462 8.58908 8.58763 
36 1 9.30484 9.29786 9.29275 
ITEM: TIMESTEP
140
ITEM: NUMBER OF ATOMS
49
ITEM: BOX BOUNDS pp pp pp
0.0000000000000000e+00 1.1000000000000000e+01
0.0000000000000000e+00 1.1002000000000001e+01
0.0000000000000000e+00 1.1000000000000000e+01
ITEM: ATOMS id type x y z 
10 1 4.54735 4.585 4.59838 
11 1 3.06504 3.06869 3.06371 
12 1 3.76213 3.78178 3.78546 
46 1 0.755787 0.718992 0.726524 
47 1 2.27349 2.2621 2.26017 
48 1 1.57186 1.54873 1.55117 
19 1 4.5277 4.52932 6.23598 
20 1 2.9866 3.00099 7.78014 
21 1 3.69474 3.70327 7.07059 
31 1 0.678526 0.662479 10.0828 
32 1 2.18514 2.18491 8.59006 
33 1 1.47749 1.46981 9.29123 
16 1 4.53893 6.21864 4.52954 
17 1 3.00214 7.77107 3.01167 
18 1 3.70937 7.05664 3.71019 
25 1 0.690571 10.0774 0.671344 
26 1 2.19616 8.58113 2.19612 
27 1 1.48969 9.28317 1.48076 
4 1 4.5774 6.18426 6.18122 
5 1 3.07967 7.69054 7.68499 
6 1 3.78603 6.98014 6.97577 
37 1 0.747374 10.0226 10.0311 
38 1 2.27528 8.49364 8.49229 
39 1 1.56945 9.19993 9.20313 
13 1 6.36994 4.55607 4.57851 
14 1 7.65475 2.91601 2.88524 
15 1 6.95207 3.62665 3.58465 
28 1 10.1208 0.660279 0.649822 
29 1 8.6039 2.16373 2.15226 
30 1 9.31521 1.45873 1.44775 
49 2 7.41636 4.62744 5.09269 
1 1 6.12084 4.64874 6.34553 
2 1 7.67977 3.0788 7.71109 
3 1 6.94323 3.82053 7.06591 
40 1 10.0415 0.732171 10.0133 
41 1 8.50655 2.25918 8.47697 
42 1 9.2152 1.55415 9.18629 
7 1 6.14984 6.28635 4.61049 
8 1 7.69879 7.71467 3.07001 
9 1 6.96935 7.04207 3.79543 
43 1 10.0489 10.0229 0.729371 
44 1 8.5137 8.49317 2.25817 
45 1 9.22337 9.20039 1.5513 
22 1 6.21471 6.26242 6.26156 
23 1 7.77998 7.78434 7.78412 
24 1 7.05971 7.08538 7.08261 
34 1 10.1062 10.0976 10.0882 
35 1 8.59464 8.58908 8.58764 
36 1 9.30487 9.29788 9.29273 
ITEM: TIMESTEP
150
ITEM: NUMBER OF ATOMS
49
ITEM: BOX BOUNDS pp pp pp
0.0000000000000000e+00 1.1000000000000000e+01
0.0000000000000000e+00 1.1002000000000001e+01
0.0000000000000000e+00 1.1000000000000000e+01
ITEM: ATOMS id type x y z 
10 1 4.54736 4.58499 4.59839 
11 1 3.06504 3.06869 3.06372 
12 1 3.76215 3.78178 3.78545 
46 1 0.755791 0.718992 0.72652 
47 1 2.27349 2.26211 2.26017 
48 1 1.57186 1.54873 1.55117 
19 1 4.52771 4.52932 6.23598 
20 1 2.9866 3.00099 7.78014 
21 1 3.69474 3.70326 7.07059 
31 1 0.678531 0.662473 10.0828 
32 1 2.18514 2.18491 8.59006 
33 1 1.47748 1.46981 9.29122 
16 1 4.53893 6.21863 4.52954 
17 1 3.00214 7.77107 3.01166 
18 1 3.70937 7.05664 3.71019 
25 1 0.690551 10.0774 0.671356 
26 1 2.19614 8.58113 2.19614 
27 1 1.48973 9.28318 1.48073 
4 1 4.5774 6.18426 6.18122 
5 1 3.07966 7.69054 7.68498 
6 1 3.78603 6.98014 6.97577 
37 1 0.747383 10.0226 10.031 
38 1 2.27528 8.49363 8.49229 
39 1 1.56946 9.19994 9.20312 
13 1 6.36996 4.5561 4.57851 
14 1 7.65473 2.91603 2.88522 
15 1 6.95206 3.62664 3.58465 
28 1 10.1208 0.660283 0.649832 
29 1 8.60389 2.16372 2.15226 
30 1 9.3152 1.45873 1.44774 
49 2 7.41635 4.62744 5.0927 
1 1 6.12084 4.64875 6.34552 
2 1 7.67976 3.0788 7.7111 
3 1 6.94323 3.82054 7.06591 
40 1 10.0415 0.732165 10.0133 
41 1 8.50655 2.25917 8.47697 
42 1 9.21521 1.55416 9.1863 
7 1 6.14984 6.28634 4.61049 
8 1 7.69878 7.71469 3.07002 
9 1 6.96936 7.04206 3.79544 
43 1 10.0489 10.0229 0.729356 
44 1 8.51369 8.49317 2.25815 
45 1 9.2234 9.20039 1.55133 
22 1 6.21471 6.26244 6.26155 
23 1 7.77998 7.78436 7.78411 
24 1 7.05971 7.08536 7.08263 
34 1 10.1062 10.0976 10.0882 
35 1 8.59464 8.58907 8.58764 
36 1 9.30487 9.29788 9.29273 
ITEM: TIMESTEP
151
ITEM: NUMBER OF ATOMS
49
ITEM: BOX BOUNDS pp pp pp
0.0000000000000000e+00 1.1000000000000000e+01
0.0000000000000000e+00 1.1002000000000001e+01
0.0000000000000000e+00 1.1000000000000000e+01
ITEM: ATOMS id type x y z 
10 1 4.54736 4.58499 4.59839 
11 1 3.06504 3.06869 3.06372 
12 1 3.76215 3.78178 3.78545 
46 1 0.755791 0.718992 0.72652 
47 1 2.27349 2.26211 2.26017 
48 1 1.57186 1.54873 1.55117 
19 1 4.52771 4.52932 6.23598 
20 1 2.9866 3.00099 7.78014 
21 1 3.69474 3.70326 7.07059 
31 1 0.678531 0.662473 10.0828 
32 1 2.18514 2.18491 8.59006 
33 1 1.47748 1.46981 9.29122 
16 1 4.53893 6.21863 4.52954 
17 1 3.00214 7.77107 3.01166 
18 1 3.70937 7.05664 3.71019 
25 1 0.690551 10.0774 0.671356 
26 1 2.19614 8.58112 2.19614 
27 1 1.48973 9.28318 1.48073 
4 1 4.5774 6.18426 6.18122 
5 1 3.07966 7.69054 7.68498 
6 1 3.78603 6.98014 6.97577 
37 1 0.747383 10.0226 10.031 
38 1 2.27528 8.49363 8.49229 
39 1 1.56946 9.19994 9.20312 
13 1 6.36996 4.5561 4.57851 
14 1 7.65473 2.91603 2.88522 
15 1 6.95205 3.62664 3.58465 
28 1 10.1208 0.660283 0.649832 
29 1 8.60388 2.16372 2.15226 
30 1 9.3152 1.45873 1.44774 
49 2 7.41635 4.62744 5.0927 
1 1 6.12084 4.64875 6.34552 
2 1 7.67976 3.0788 7.7111 
3 1 6.94323 3.82054 7.06591 
40 1 10.0415 0.732165 10.0133 
41 1 8.50655 2.25917 8.47697 
42 1 9.21521 1.55416 9.1863 
7 1 6.14984 6.28634 4.61049 
8 1 7.69878 7.71469 3.07002 
9 1 6.96936 7.04206 3.79544 
43 1 10.0489 10.0229 0.729356 
44 1 8.51369 8.49317 2.25815 
45 1 9.2234 9.20039 1.55133 
22 1 6.21471 6.26244 6.26155 
23 1 7.77998 7.78436 7.78411 
24 1 7.05971 7.08536 7.08263 
34 1 10.1062 10.0976 10.0882 
35 1 8.59464 8.58907 8.58764 
36 1 9.30487 9.29788 9.29273 
ITEM: TIMESTEP
153
ITEM: NUMBER OF ATOMS
49
ITEM: BOX BOUNDS pp pp pp
0.0000000000000000e+00 1.1000000000000000e+01
0.0000000000000000e+00 1.1002000000000001e+01
0.0000000000000000e+00 1.1000000000000000e+01
ITEM: ATOMS id type x y z 
10 1 4.54736 4.58499 4.59839 
11 1 3.06504 3.06869 3.06372 
12 1 3.76215 3.78178 3.78545 
46 1 0.755791 0.718992 0.72652 
47 1 2.27349 2.26211 2.26017 
48 1 1.57186 1.54873 1.55117 
19 1 4.52771 4.52932 6.23598 
20 1 2.9866 3.00099 7.78014 
21 1 3.69474 3.70326 7.07059 
31 1 0.678532 0.662473 10.0828 
32 1 2.18514 2.18491 8.59006 
33 1 1.47748 1.46981 9.29122 
16 1 4.53893 6.21863 4.52954 
17 1 3.00214 7.77107 3.01166 
18 1 3.70937 7.05663 3.71019 
25 1 0.69055 10.0774 0.671357 
26 1 2.19614 8.58112 2.19614 
27 1 1.48973 9.28318 1.48073 
4 1 4.5774 6.18426 6.18122 
5 1 3.07966 7.69054 7.68498 
6 1 3.78603 6.98014 6.97577 
37 1 0.747383 10.0226 10.031 
38 1 2.27528 8.49363 8.49229 
39 1 1.56946 9.19994 9.20312 
13 1 6.36996 4.5561 4.57851 
14 1 7.65473 2.91603 2.88522 
15 1 6.95205 3.62664 3.58465 
28 1 10.1208 0.660283 0.649833 
29 1 8.60388 2.16372 2.15226 
30 1 9.3152 1.45873 1.44774 
49 2 7.41635 4.62744 5.0927 
1 1 6.12084 4.64875 6.34552 
2 1 7.67976 3.0788 7.7111 
3 1 6.94323 3.82054 7.06591 
40 1 10.0415 0.732165 10.0133 
41 1 8.50655 2.25917 8.47697 
42 1 9.21521 1.55416 9.1863 
7 1 6.14984 6.28634 4.61049 
8 1 7.69878 7.71469 3.07002 
9 1 6.96936 7.04206 3.79544 
43 1 10.0489 10.0229 0.729356 
44 1 8.51369 8.49317 2.25815 
45 1 9.2234 9.20039 1.55133 
22 1 6.21471 6.26244 6.26155 