LAMMPS (3 Mar 2020)
Reading data file ...
  orthogonal box = (0 0 0) to (11 11.002 11)
  2 by 2 by 2 MPI processor grid
  reading atoms ...
  49 atoms
  read_data CPU = 0.0150904 secs
WARNING: Changed valency_val to valency_boc for X (../reaxc_ffield.cpp:315)
WARNING: Using 'neigh_modify every 1 delay 0 check yes' setting during minimization (../min.cpp:190)
Neighbor list info ...
  update every 1 steps, delay 0 steps, check yes
  max neighbors/atom: 2000, page size: 100000
  master list distance cutoff = 12
  ghost atom cutoff = 12
  binsize = 6, bins = 2 2 2
  2 neighbor lists, perpetual/occasional/extra = 2 0 0
  (1) pair reax/c, perpetual
      attributes: half, newton off, ghost
      pair build: half/bin/newtoff/ghost
      stencil: half/ghost/bin/3d/newtoff
      bin: standard
  (2) fix qeq/reax, perpetual, copy from (1)
      attributes: half, newton off, ghost
      pair build: copy
      stencil: none
      bin: none
Setting up cg style minimization ...
  Unit style    : real
  Current step  : 0
Per MPI rank memory allocation (min/avg/max) = 24.7 | 24.82 | 24.96 Mbytes
Step Temp E_pair E_mol TotEng Press 
       0            0   -8488.6189            0   -8488.6189    124917.43 
     151            0   -8717.8081            0   -8717.8081     62986.11 
Loop time of 7.61173 on 8 procs for 151 steps with 49 atoms

99.1% CPU use with 8 MPI tasks x no OpenMP threads

Minimization stats:
  Stopping criterion = energy tolerance
  Energy initial, next-to-last, final = 
        -8488.61889151     -8717.80805761     -8717.80811021
  Force two-norm initial, final = 1704.64 76.6065
  Force max component initial, final = 781.51 25.234
  Final line search alpha, max atom move = 2.91783e-08 7.36287e-07
  Iterations, force evaluations = 151 1581

MPI task timing breakdown:
Section |  min time  |  avg time  |  max time  |%varavg| %total
---------------------------------------------------------------
Pair    | 6.4884     | 6.5341     | 6.65       |   2.0 | 85.84
Neigh   | 0          | 0          | 0          |   0.0 |  0.00
Comm    | 0.079973   | 0.19666    | 0.24292    |  11.7 |  2.58
Output  | 0.00049722 | 0.00067277 | 0.0010591  |   0.0 |  0.01
Modify  | 0.86333    | 0.86393    | 0.86455    |   0.0 | 11.35
Other   |            | 0.01634    |            |       |  0.21

Nlocal:    6.125 ave 7 max 6 min
Histogram: 7 0 0 0 0 0 0 0 0 1
Nghost:    944.625 ave 953 max 938 min
Histogram: 2 0 0 0 4 0 0 0 0 2
Neighs:    1698 ave 1944 max 1660 min
Histogram: 7 0 0 0 0 0 0 0 0 1

Total # of neighbors = 13584
Ave neighs/atom = 277.224
Neighbor list builds = 0
Dangerous builds = 0
WARNING: Using 'neigh_modify every 1 delay 0 check yes' setting during minimization (../min.cpp:190)
Setting up cg style minimization ...
  Unit style    : real
  Current step  : 151
Per MPI rank memory allocation (min/avg/max) = 24.7 | 24.82 | 24.96 Mbytes
Step Temp E_pair E_mol TotEng Press 
     151            0   -8717.8081            0   -8717.8081    62986.109 
     153            0   -8717.8082            0   -8717.8082    62985.498 
Loop time of 0.192104 on 8 procs for 2 steps with 49 atoms

99.3% CPU use with 8 MPI tasks x no OpenMP threads

Minimization stats:
  Stopping criterion = energy tolerance
  Energy initial, next-to-last, final = 
        -8717.80811022      -8717.8082046     -8717.80822261
  Force two-norm initial, final = 76.6065 68.0309
  Force max component initial, final = 25.234 16.9988
  Final line search alpha, max atom move = 1.21655e-08 2.06799e-07
  Iterations, force evaluations = 2 40

MPI task timing breakdown:
Section |  min time  |  avg time  |  max time  |%varavg| %total
---------------------------------------------------------------
Pair    | 0.16747    | 0.16877    | 0.17175    |   0.3 | 87.85
Neigh   | 0          | 0          | 0          |   0.0 |  0.00
Comm    | 0.0019033  | 0.0049129  | 0.0062122  |   2.0 |  2.56
Output  | 0          | 0          | 0          |   0.0 |  0.00
Modify  | 0.017905   | 0.017926   | 0.01794    |   0.0 |  9.33
Other   |            | 0.0004936  |            |       |  0.26

Nlocal:    6.125 ave 7 max 6 min
Histogram: 7 0 0 0 0 0 0 0 0 1
Nghost:    948.375 ave 953 max 944 min
Histogram: 4 0 0 0 0 0 0 0 1 3
Neighs:    1702 ave 1947 max 1664 min
Histogram: 7 0 0 0 0 0 0 0 0 1

Total # of neighbors = 13616
Ave neighs/atom = 277.878
Neighbor list builds = 0
Dangerous builds = 0
WARNING: Using 'neigh_modify every 1 delay 0 check yes' setting during minimization (../min.cpp:190)
Setting up cg style minimization ...
  Unit style    : real
  Current step  : 153
WARNING: Energy due to 3 extra global DOFs will be included in minimizer energies
Per MPI rank memory allocation (min/avg/max) = 24.7 | 24.82 | 24.96 Mbytes
Step Temp E_pair E_mol TotEng Press Volume 
     153            0   -8717.8082            0   -8717.8082    62985.499     1331.242 
     429            0   -8731.4073            0   -8731.4073    773.07673     1358.274 
Loop time of 2.52548 on 8 procs for 276 steps with 49 atoms

99.0% CPU use with 8 MPI tasks x no OpenMP threads

Minimization stats:
  Stopping criterion = energy tolerance
  Energy initial, next-to-last, final = 
        -8717.80822236     -8731.40718933      -8731.4072714
  Force two-norm initial, final = 2119.24 55.3666
  Force max component initial, final = 1236.25 15.5193
  Final line search alpha, max atom move = 4.23982e-06 6.57991e-05
  Iterations, force evaluations = 276 551

MPI task timing breakdown:
Section |  min time  |  avg time  |  max time  |%varavg| %total
---------------------------------------------------------------
Pair    | 2.2382     | 2.2535     | 2.284      |   1.0 | 89.23
Neigh   | 0          | 0          | 0          |   0.0 |  0.00
Comm    | 0.028457   | 0.059304   | 0.074682   |   6.4 |  2.35
Output  | 0.00074907 | 0.00091443 | 0.0013843  |   0.0 |  0.04
Modify  | 0.19607    | 0.19634    | 0.19657    |   0.0 |  7.77
Other   |            | 0.01545    |            |       |  0.61

Nlocal:    6.125 ave 7 max 6 min
Histogram: 7 0 0 0 0 0 0 0 0 1
Nghost:    948.375 ave 953 max 944 min
Histogram: 4 0 0 0 0 0 0 0 1 3
Neighs:    1702 ave 1947 max 1664 min
Histogram: 7 0 0 0 0 0 0 0 0 1

Total # of neighbors = 13616
Ave neighs/atom = 277.878
Neighbor list builds = 0
Dangerous builds = 0
WARNING: Using 'neigh_modify every 1 delay 0 check yes' setting during minimization (../min.cpp:190)
Setting up cg style minimization ...
  Unit style    : real
  Current step  : 429
Per MPI rank memory allocation (min/avg/max) = 24.7 | 24.82 | 24.96 Mbytes
Step Temp E_pair E_mol TotEng Press 
     429            0   -8731.4073            0   -8731.4073    773.07711 
     465            0   -8731.9602            0   -8731.9602    2129.9891 
Loop time of 1.90077 on 8 procs for 36 steps with 49 atoms

99.2% CPU use with 8 MPI tasks x no OpenMP threads

Minimization stats:
  Stopping criterion = energy tolerance
  Energy initial, next-to-last, final = 
        -8731.40727148     -8731.96008316     -8731.96016697
  Force two-norm initial, final = 48.6929 42.4089
  Force max component initial, final = 12.0681 11.1231
  Final line search alpha, max atom move = 9.91515e-07 1.10288e-05
  Iterations, force evaluations = 36 448

MPI task timing breakdown:
Section |  min time  |  avg time  |  max time  |%varavg| %total
---------------------------------------------------------------
Pair    | 1.6097     | 1.6297     | 1.6553     |   1.1 | 85.74
Neigh   | 0          | 0          | 0          |   0.0 |  0.00
Comm    | 0.020071   | 0.045645   | 0.065445   |   6.8 |  2.40
Output  | 0.00011681 | 0.00014288 | 0.00022478 |   0.0 |  0.01
Modify  | 0.22076    | 0.2209     | 0.22116    |   0.0 | 11.62
Other   |            | 0.004371   |            |       |  0.23

Nlocal:    6.125 ave 7 max 6 min
Histogram: 7 0 0 0 0 0 0 0 0 1
Nghost:    891.375 ave 902 max 881 min
Histogram: 1 1 0 0 2 2 0 0 1 1
Neighs:    1677.5 ave 1925 max 1638 min
Histogram: 7 0 0 0 0 0 0 0 0 1

Total # of neighbors = 13420
Ave neighs/atom = 273.878
Neighbor list builds = 0
Dangerous builds = 0
WARNING: Using 'neigh_modify every 1 delay 0 check yes' setting during minimization (../min.cpp:190)
Setting up cg style minimization ...
  Unit style    : real
  Current step  : 465
WARNING: Energy due to 3 extra global DOFs will be included in minimizer energies
Per MPI rank memory allocation (min/avg/max) = 24.7 | 24.82 | 24.96 Mbytes
Step Temp E_pair E_mol TotEng Press Volume 
     465            0   -8731.9602            0   -8731.9602    2129.9873     1358.274 
     504            0   -8732.0318            0   -8732.0318    71.526924    1358.8385 
Loop time of 0.460719 on 8 procs for 39 steps with 49 atoms

99.2% CPU use with 8 MPI tasks x no OpenMP threads

Minimization stats:
  Stopping criterion = energy tolerance
  Energy initial, next-to-last, final = 
        -8731.96016752     -8732.03173233     -8732.03177914
  Force two-norm initial, final = 87.1125 47.4372
  Force max component initial, final = 54.67 13.495
  Final line search alpha, max atom move = 1.30457e-07 1.76052e-06
  Iterations, force evaluations = 39 111

MPI task timing breakdown:
Section |  min time  |  avg time  |  max time  |%varavg| %total
---------------------------------------------------------------
Pair    | 0.40241    | 0.40863    | 0.41648    |   0.6 | 88.69
Neigh   | 0          | 0          | 0          |   0.0 |  0.00
Comm    | 0.0046645  | 0.012516   | 0.018731   |   3.5 |  2.72
Output  | 0.00010978 | 0.00013336 | 0.00020606 |   0.0 |  0.03
Modify  | 0.03648    | 0.036512   | 0.036561   |   0.0 |  7.93
Other   |            | 0.002923   |            |       |  0.63

Nlocal:    6.125 ave 7 max 6 min
Histogram: 7 0 0 0 0 0 0 0 0 1
Nghost:    895.125 ave 908 max 884 min
Histogram: 1 0 2 1 0 0 3 0 0 1
Neighs:    1677.5 ave 1925 max 1639 min
Histogram: 7 0 0 0 0 0 0 0 0 1

Total # of neighbors = 13420
Ave neighs/atom = 273.878
Neighbor list builds = 0
Dangerous builds = 0
WARNING: Using 'neigh_modify every 1 delay 0 check yes' setting during minimization (../min.cpp:190)
Setting up cg style minimization ...
  Unit style    : real
  Current step  : 504
Per MPI rank memory allocation (min/avg/max) = 24.7 | 24.82 | 24.96 Mbytes
Step Temp E_pair E_mol TotEng Press 
     504            0   -8732.0318            0   -8732.0318      71.5243 
     505            0   -8732.0319            0   -8732.0319    71.788309 
Loop time of 0.0826487 on 8 procs for 1 steps with 49 atoms

99.3% CPU use with 8 MPI tasks x no OpenMP threads

Minimization stats:
  Stopping criterion = energy tolerance
  Energy initial, next-to-last, final = 
        -8732.03177945     -8732.03177945     -8732.03185685
  Force two-norm initial, final = 47.3474 43.6516
  Force max component initial, final = 13.495 12.8336
  Final line search alpha, max atom move = 1.1307e-07 1.4511e-06
  Iterations, force evaluations = 1 19

MPI task timing breakdown:
Section |  min time  |  avg time  |  max time  |%varavg| %total
---------------------------------------------------------------
Pair    | 0.070615   | 0.071638   | 0.072984   |   0.3 | 86.68
Neigh   | 0          | 0          | 0          |   0.0 |  0.00
Comm    | 0.00086566 | 0.0022167  | 0.0032379  |   1.4 |  2.68
Output  | 0          | 0          | 0          |   0.0 |  0.00
Modify  | 0.0085234  | 0.0085363  | 0.0085466  |   0.0 | 10.33
Other   |            | 0.0002572  |            |       |  0.31

Nlocal:    6.125 ave 7 max 6 min
Histogram: 7 0 0 0 0 0 0 0 0 1
Nghost:    895.125 ave 908 max 884 min
Histogram: 1 0 2 1 0 0 3 0 0 1
Neighs:    1676.5 ave 1920 max 1638 min
Histogram: 7 0 0 0 0 0 0 0 0 1

Total # of neighbors = 13412
Ave neighs/atom = 273.714
Neighbor list builds = 0
Dangerous builds = 0
Setting up Verlet run ...
  Unit style    : real
  Current step  : 0
  Time step     : 0.25
Per MPI rank memory allocation (min/avg/max) = 23.57 | 23.69 | 23.83 Mbytes
Step Temp TotEng KinEng PotEng Press 
       0          300   -8689.1082    42.923665   -8732.0319    1515.7712 
     200     339.5889   -8678.1613       48.588   -8726.7493      22811.6 
     400     294.3241   -8691.8863    42.111563   -8733.9979    17721.054 
     600    325.99129   -8694.5631    46.642469   -8741.2055    9438.4178 
     800    265.58976   -8683.6383    38.000287   -8721.6386   -22958.733 
    1000    265.97581   -8690.5397    38.055521   -8728.5952    38977.456 
    1200    251.36642   -8699.7515    35.965226   -8735.7167    6507.1995 
    1400    299.90873   -8681.4852    42.910605   -8724.3958    1218.8144 
    1600    293.18049   -8691.9564    41.947937   -8733.9044   -27097.992 
    1800    295.40607    -8685.008     42.26637   -8727.2744    -10543.51 
    2000    354.14646   -8681.9529     50.67088   -8732.6237    6193.8205 
    2200    305.68774   -8690.8968     43.73746   -8734.6343    209.90598 
    2400    335.10684   -8679.3729    47.946712   -8727.3196      37266.8 
    2600    335.53861   -8674.5148    48.008489   -8722.5232    -2102.325 
    2800    275.60755   -8685.2256    39.433621   -8724.6592   -47033.513 
    3000    267.64261   -8696.2844    38.294005   -8734.5785   -12776.164 
    3200    276.56278    -8700.284    39.570294   -8739.8543   -21378.455 
    3400    312.88168   -8686.0895    44.766761   -8730.8562    39505.548 
    3600    338.88357   -8683.3369    48.487083    -8731.824    7988.9548 
    3800    295.01158   -8689.8553    42.209927   -8732.0653   -32116.659 
    4000    249.79719    -8697.655    35.740702   -8733.3957    7520.2543 
    4200    332.91529   -8677.9598    47.633148   -8725.5929    38192.337 
    4400    266.07588    -8689.027    38.069839   -8727.0968   -9167.4503 
    4600    308.19724   -8693.9968    44.096516   -8738.0934    6661.7338 
    4800    360.06752    -8673.517    51.518059    -8725.035   -40163.194 
    5000    274.30094   -8685.6664    39.246672   -8724.9131    22990.367 
    5200     260.8711   -8699.2578    37.325146   -8736.5829    42465.823 
    5400    224.94833   -8698.7695    32.185356   -8730.9548    7726.5624 
    5600    278.43448   -8684.6477    39.838094   -8724.4858     6969.689 
    5800    320.23473   -8682.2526    45.818827   -8728.0714   -5367.0261 
    6000    215.54052   -8697.2942    30.839297   -8728.1335    -19340.84 
    6200    347.89696   -8686.2712    49.776708   -8736.0479   -11200.031 
    6400    273.79703   -8687.4386    39.174574   -8726.6132    -2774.829 
    6600    265.76238   -8694.4894    38.024984   -8732.5144   -1905.9887 
    6800    267.43167   -8697.3363    38.263824   -8735.6001    14387.208 
    7000    260.70066   -8685.2096    37.300758   -8722.5104    31193.633 
    7200    289.10286   -8680.5643    41.364514   -8721.9288   -32603.007 
    7400    270.11858   -8697.5755    38.648265   -8736.2238    3877.1362 
    7600    252.19429   -8693.8586    36.083676   -8729.9423    7717.4782 
    7800    296.53523   -8680.4911    42.427929    -8722.919   -14124.866 
    8000      317.439   -8685.3443    45.418818   -8730.7631    3584.9201 
    8200    245.68357   -8697.9131     35.15213   -8733.0652    21441.967 
    8400    313.48904   -8682.5375    44.853662   -8727.3912    24938.674 
    8600    272.74009   -8687.3687    39.023347   -8726.3921   -8479.7206 
    8800    283.64944   -8698.0428    40.584245   -8738.6271    17679.467 
    9000    280.96129   -8688.8985    40.199627   -8729.0982   -10774.914 
    9200    333.20465   -8681.6766    47.674549   -8729.3511     55684.37 
    9400    322.02837   -8676.7323    46.075459   -8722.8078   -39016.398 
    9600    284.99051   -8689.9569    40.776124   -8730.7331    28173.594 
    9800    247.89454    -8700.002    35.468474   -8735.4705   -33853.226 
   10000     267.0865    -8677.611    38.214437   -8715.8254        36663 
   10200    299.09526   -8684.3764    42.794216   -8727.1706    25858.438 
   10400    288.61964   -8692.4801    41.295375   -8733.7755    16701.329 
   10600    302.38639   -8685.6044    43.265107   -8728.8696    47786.659 
   10800    337.89891   -8676.8953    48.346199   -8725.2415   -13277.791 
   11000    269.50493   -8693.1648    38.560465   -8731.7252    -39331.39 
   11200    286.27202   -8688.3528    40.959481   -8729.3123   -30058.831 
   11400    294.14785   -8681.6736    42.086346     -8723.76    5178.8335 
   11600    244.35052   -8692.7982    34.961399   -8727.7596    -20541.33 
   11800    338.07596   -8674.8286     48.37153   -8723.2002   -19280.905 
   12000    236.04602   -8687.6146      33.7732   -8721.3878    68415.297 
   12200    309.31483   -8687.1861    44.256421   -8731.4425   -30294.244 
   12400    265.22257   -8694.5095    37.947749   -8732.4572    14080.687 
   12600    322.98068   -8677.2064    46.211715   -8723.4181   -19790.438 
   12800     306.4157   -8686.8654    43.841615    -8730.707    13148.662 
   13000    287.99232   -8693.9942    41.205619   -8735.1999   -27081.425 
   13200    317.62423   -8674.2575    45.445319   -8719.7028    477.36377 
   13400     250.5446    -8692.148    35.847641   -8727.9956   -28610.881 
   13600    321.86817   -8686.3771    46.052538   -8732.4296     18236.48 
   13800    328.28337    -8684.854    46.970417   -8731.8244    27291.827 
   14000    257.26703   -8694.7823    36.809479   -8731.5918   -25236.241 
   14200    317.93257   -8683.9104    45.489437   -8729.3998    373.98927 
   14400    266.71981   -8690.9313    38.161973   -8729.0932   -7523.1406 
   14600    347.47806   -8678.4873    49.716772    -8728.204    -17422.49 
   14800    256.27696   -8685.9189    36.667821   -8722.5868   -1439.0879 
   15000    314.79198   -8685.2335    45.040085   -8730.2736    2396.7218 
   15200    385.10381   -8666.9316    55.100222   -8722.0318    16149.757 
   15400    277.86394    -8686.899    39.756463   -8726.6555      20147.8 
   15600     282.7032   -8685.2762    40.448858   -8725.7251   -18297.984 
   15800    256.70654   -8697.4192    36.729285   -8734.1485    12701.496 
   16000    307.40778   -8689.4709    43.983562   -8733.4544    23802.701 
   16200    315.80913    -8682.196    45.185617   -8727.3816    5248.5466 
   16400    278.11127   -8693.4419    39.791849   -8733.2337   -21113.133 
   16600    290.25508   -8697.5168    41.529372   -8739.0462    29800.583 
   16800    263.61128   -8685.6283    37.717207   -8723.3455    14720.221 
   17000    299.89448   -8681.2781    42.908567   -8724.1867   -51838.226 
   17200    271.90957   -8691.4338    38.904518   -8730.3383    25429.511 
   17400    268.30006   -8690.5203    38.388072   -8728.9084   -4836.6172 
   17600    263.19826   -8684.8908    37.658113   -8722.5489    5063.2892 
   17800    297.00907   -8683.2394    42.495726   -8725.7351    -17538.18 
   18000    247.48362   -8687.8811     35.40968   -8723.2908    8169.9357 
   18200    292.58659   -8692.1995    41.862962   -8734.0625    52252.964 
   18400    278.54801   -8681.8972    39.854339   -8721.7516   -20488.658 
   18600    325.93758   -8679.8693    46.634784   -8726.5041    40510.649 
   18800     298.8782   -8689.7064    42.763158   -8732.4695    1891.4341 
   19000    312.87193   -8682.1692    44.765367   -8726.9346    15603.761 
   19200    265.59817   -8697.8172    38.001489   -8735.8187   -20366.604 
   19400    328.15702   -8685.5875     46.95234   -8732.5398    29854.954 
   19600    331.73503   -8686.5328    47.464277   -8733.9971     22055.49 
   19800    275.03828   -8688.5876     39.35217   -8727.9397    14461.963 
   20000    265.02027   -8696.7921    37.918804   -8734.7109    9611.8542 
   20200    311.56376   -8682.3718    44.578195     -8726.95    27245.528 
   20400     406.6347   -8666.9385    58.180838   -8725.1194    2187.7756 
   20600    341.34035   -8680.4328    48.838595   -8729.2714    -36413.35 
   20800    278.99105   -8685.8511    39.917728   -8725.7688    3637.7698 
   21000    305.57217   -8690.5697    43.720924   -8734.2906    34345.967 
   21200    312.51729   -8691.8828    44.714625   -8736.5974    10807.967 
   21400    301.07061   -8681.9158    43.076847   -8724.9926    3578.9136 
   21600    325.67936   -8689.1397    46.597839   -8735.7376    28311.719 
   21800    260.66819   -8696.8541    37.296114   -8734.1502    4265.3485 
   22000    353.14915   -8682.9618    50.528186   -8733.4899   -14676.107 
   22200    300.72064   -8686.2193    43.026773   -8729.2461    -25149.26 
   22400    327.28116    -8684.744    46.827023    -8731.571   -10112.687 
   22600    325.95618   -8688.1231    46.637446   -8734.7606   -5911.3915 
   22800    289.30812   -8688.8733    41.393883   -8730.2672    16032.316 
   23000    298.61115   -8683.4363     42.72495   -8726.1612    16855.512 
   23200    294.03759   -8689.6374     42.07057    -8731.708    40044.209 
   23400     327.2418   -8672.7667    46.821391   -8719.5881   -14508.957 
   23600    301.67794   -8689.0522    43.163743   -8732.2159   -4223.9779 
   23800    297.55137   -8690.5319    42.573318   -8733.1052     -3472.49 
   24000    384.57666   -8673.3677    55.024799   -8728.3925   -12638.455 
   24200    298.10105   -8685.7262    42.651965   -8728.3781   -4377.1812 
   24400    297.48415   -8683.3006    42.563699   -8725.8643    4325.1727 
   24600    303.45617   -8694.0848     43.41817    -8737.503    9691.1051 
   24800     281.9621   -8689.5098    40.342823   -8729.8527    31999.145 
   25000    350.02387   -8684.3105    50.081025   -8734.3915   -29392.922 
   25200    240.98255    -8698.452    34.479513   -8732.9315   -35475.769 
   25400    308.44265   -8692.5995    44.131629   -8736.7312   -28300.975 
   25600     298.1435   -8681.7202    42.658038   -8724.3782    11060.422 
   25800    322.28968   -8693.2413    46.112847   -8739.3541    14052.542 
   26000    247.50617   -8693.5246    35.412906   -8728.9375    6117.2568 
   26200    337.85863   -8675.7962    48.340435   -8724.1366   -14908.252 
   26400    296.03622   -8690.5178    42.356531   -8732.8743    17545.525 
   26600      325.917   -8690.1645     46.63184   -8736.7964    1529.3993 
   26800    288.52241   -8684.8219    41.281464   -8726.1034    32050.741 
   27000    331.79426   -8672.6032    47.472751    -8720.076    -36346.19 
   27200    273.94086   -8691.5492    39.195152   -8730.7444   -36999.585 
   27400    274.85951   -8685.9263    39.326592   -8725.2529    29764.192 
   27600    312.46074   -8679.4134    44.706533   -8724.1199    -7538.693 
   27800    245.58867    -8696.482    35.138553   -8731.6206   -21175.768 
   28000    276.36219   -8687.5326    39.541594   -8727.0742   -30924.153 
   28200    334.16392   -8674.5059      47.8118   -8722.3177   -35956.573 
   28400    274.09447   -8696.7318    39.217131   -8735.9489     1860.008 
   28600    310.42577    -8688.163    44.415373   -8732.5783   -9407.7781 
   28800    371.32503    -8674.837     53.12877   -8727.9657   -11453.704 
   29000    243.53139   -8694.1985    34.844199   -8729.0427   -4030.5336 
   29200    302.98079   -8691.9208    43.350152   -8735.2709   -34627.076 
   29400    340.76381   -8679.2075    48.756106   -8727.9636    10819.342 
   29600    320.49047   -8692.0614    45.855419   -8737.9168     33531.77 
   29800    295.28501   -8688.4487    42.249049   -8730.6978   -28255.877 
   30000    319.72885   -8684.0566    45.746446    -8729.803    1461.4148 
   30200    242.04824   -8692.2844    34.631991   -8726.9164    -15613.25 
   30400    295.44828    -8693.728     42.27241   -8736.0004   -21521.254 
   30600    333.47409   -8684.5714    47.713099   -8732.2845    23666.926 
   30800    234.74033    -8690.305    33.586385   -8723.8913   -41068.992 
   31000    348.97122   -8669.2519    49.930413   -8719.1823    64474.506 
   31200    296.42976   -8681.5028    42.412839   -8723.9156    13526.884 
   31400    328.60321   -8683.7349     47.01618   -8730.7511   -27719.042 
   31600    230.00493   -8697.1843    32.908849   -8730.0931   -31214.683 
   31800    301.01426    -8683.455    43.068784   -8726.5237    17208.773 
   32000    312.25991   -8685.7807    44.677799   -8730.4585   -14086.449 
   32200    262.57558   -8698.4366    37.569021   -8736.0057    24623.007 
   32400    399.65339   -8676.5881     57.18196   -8733.7701   -13409.317 
   32600    290.04702   -8687.7558    41.499603   -8729.2554   -10801.242 
   32800    328.07786   -8694.8366    46.941013   -8741.7777   -19427.347 
   33000    336.60035   -8676.5269    48.160401   -8724.6873   -44460.866 
   33200    286.58824   -8687.8017    41.004726   -8728.8065    52144.341 
   33400    288.95628   -8692.6314    41.343541   -8733.9749   -27769.275 
   33600    317.31659    -8689.633    45.401303   -8735.0343    44700.385 
   33800    316.73594   -8680.0024    45.318225   -8725.3206   -29309.221 
   34000     266.5237   -8694.7111    38.133914    -8732.845    37107.202 
   34200    302.90995   -8690.4388    43.340017   -8733.7788   -911.80558 
   34400    301.75306    -8685.884    43.174491   -8729.0585   -15407.844 
   34600     243.6381   -8691.1936    34.859466   -8726.0531    -7047.281 
   34800    259.04262   -8699.5045    37.063528    -8736.568    32101.251 
   35000    330.43065    -8684.846    47.277648   -8732.1236   -10898.957 
   35200    263.52913   -8681.1124    37.705453   -8718.8178    30008.898 
   35400    366.13797   -8674.9504    52.386612    -8727.337    1747.3227 
   35600    246.36398   -8689.7407    35.249483   -8724.9902   -62753.218 
   35800    313.00602   -8677.2154    44.784551   -8721.9999     -13965.9 
   36000    302.58666   -8686.3524    43.293762   -8729.6462    27592.775 
   36200    262.35939   -8691.0892    37.538089   -8728.6273   -7680.8918 
   36400     266.0701   -8684.6544    38.069012   -8722.7234   -21354.703 
   36600    320.97156   -8675.9409    45.924252   -8721.8652    -20992.35 
   36800    283.27641   -8692.9173    40.530873   -8733.4482    13419.614 
   37000    307.06727   -8690.1826    43.934842   -8734.1175   -21153.089 
   37200    269.16867   -8682.6504    38.512353   -8721.1628   -12426.916 
   37400    274.30801   -8689.6726    39.247684   -8728.9203    -4945.006 
   37600    255.85636   -8694.2927    36.607642   -8730.9003   -17812.551 
   37800    345.63464   -8678.9059    49.453018   -8728.3589   -27499.713 
   38000    230.86695   -8691.5316    33.032185   -8724.5638   -28580.879 
   38200    311.17283   -8683.7384    44.522261   -8728.2607   -2195.5848 
   38400    303.70592   -8673.9333    43.453903   -8717.3872    17588.564 
   38600    346.13049   -8686.7864    49.523964   -8736.3104    14630.355 
   38800    280.01314   -8689.9736    40.063967   -8730.0376   -16801.755 
   39000    343.23558   -8670.5762    49.109763    -8719.686    18464.963 
   39200    254.95589   -8685.8579    36.478803   -8722.3367   -20864.918 
   39400    314.66251   -8692.9558     45.02156   -8737.9774     15619.21 
   39600    274.68297   -8700.5589    39.301333   -8739.8603   -21780.178 
   39800    344.13727   -8688.0141    49.238776   -8737.2529    30857.442 
   40000    343.19832   -8683.1045    49.104431   -8732.2089   -12364.491 
   40200    362.96645   -8673.4012    51.932834    -8725.334    21485.772 
   40400    283.91261   -8691.4299    40.621898   -8732.0518   -4145.0527 
   40600    354.00314   -8681.2578    50.650374   -8731.9082    2677.1883 
   40800    312.68083   -8678.8965    44.738023   -8723.6345   -11806.289 
   41000    293.23468   -8695.7561     41.95569   -8737.7118    14805.359 
   41200    276.33093   -8687.7668    39.537121   -8727.3039   -8731.7435 
   41400    259.51179   -8682.5007    37.130657   -8719.6313    24148.347 
   41600    230.29112   -8692.7416    32.949796   -8725.6914   -29613.119 
   41800    239.42468     -8701.45    34.256615   -8735.7066   -21969.912 
   42000    305.35635   -8680.5193    43.690046   -8724.2093    50547.774 
   42200    320.15264   -8682.8485    45.807082   -8728.6556   -18544.492 
   42400     282.6761   -8695.1235     40.44498   -8735.5685    9809.2459 
   42600    363.51512   -8675.2018    52.011337   -8727.2132    29174.397 
   42800    260.06441    -8686.535    37.209725   -8723.7447    17473.026 
   43000    324.18531   -8680.1007    46.384072   -8726.4848   -30904.144 
   43200    305.94623   -8683.1494    43.774445   -8726.9239   -50452.803 
   43400    279.26984   -8691.1964    39.957617   -8731.1541    4367.0452 
   43600      401.061   -8671.6553    57.383359   -8729.0387    -5200.161 
   43800    292.80901   -8680.4924    41.894786   -8722.3872    16444.172 
   44000    276.97846   -8687.4864    39.629768   -8727.1162    37912.376 
   44200    314.61415   -8690.6322    45.014641   -8735.6468   -4968.8668 
   44400    263.84622    -8690.015    37.750823   -8727.7658   -33355.224 
   44600    349.91219   -8675.5243    50.065044   -8725.5894   -1843.7595 
   44800    279.34117   -8691.6077    39.967822   -8731.5756     20390.71 
   45000    282.77435   -8684.9169    40.459037   -8725.3759    -25408.85 
   45200    278.63766   -8688.4689    39.867166   -8728.3361    27870.773 
   45400     267.7051   -8693.0734    38.302947   -8731.3763   -23389.605 
   45600    326.93886   -8687.1241    46.778047   -8733.9022    38755.999 
   45800    286.62326   -8684.7677    41.009736   -8725.7774   -2187.4135 
   46000    391.23556   -8672.1491    55.977547   -8728.1266   -26450.366 
   46200    294.83795   -8689.5135    42.185084   -8731.6986   -5487.9562 
   46400    292.27197   -8690.3532    41.817947   -8732.1711   -40698.281 
   46600    339.47256   -8675.0215    48.571355   -8723.5929    12073.699 
   46800    273.62589   -8690.1354    39.150087   -8729.2855    8504.2212 
   47000    267.67406   -8686.5078    38.298505   -8724.8063   -6604.8347 
   47200     361.4577   -8666.6324    51.716964   -8718.3493    -8348.016 
   47400    263.38579   -8685.7208    37.684944   -8723.4058   -7959.8455 
   47600    353.51263   -8686.0472    50.580192   -8736.6274    32746.182 
   47800    270.94891   -8701.2598    38.767067   -8740.0269    9609.0816 
   48000    296.15642   -8685.4255     42.37373   -8727.7992   -43654.065 
   48200    309.60686   -8687.0092    44.298204   -8731.3074   -3782.1756 
   48400    254.26161   -8697.3133    36.379467   -8733.6927   -21080.109 
   48600    327.90494   -8684.7097    46.916273    -8731.626   -5440.5344 
   48800    354.90462   -8685.4494    50.779357   -8736.2288    14853.085 
   49000    268.34715    -8692.779     38.39481   -8731.1738    43609.566 
   49200    383.49869   -8677.2277    54.870565   -8732.0982    34800.569 
   49400    303.08634   -8689.1031    43.365254   -8732.4684    31897.729 
   49600    297.44924   -8678.4514    42.558705   -8721.0101    7311.9942 
   49800    294.71196      -8681.3    42.167058    -8723.467   -10790.574 
   50000    296.35224   -8687.6752    42.401747   -8730.0769     49599.63 
   50200    326.93983   -8685.9243    46.778185   -8732.7024    46830.162 
   50400    274.50962   -8687.2459     39.27653   -8726.5224    31585.962 
   50600    293.76444   -8687.0902    42.031487   -8729.1217    708.43862 
   50800    318.35308   -8689.2221    45.549603   -8734.7717     23250.08 
   51000    317.82404   -8690.3712    45.473908   -8735.8452    4424.6859 
   51200    276.64425   -8676.7688     39.58195   -8716.3508    5262.0675 
   51400    238.29081   -8696.4889    34.094383   -8730.5833   -25741.898 
   51600    252.22394   -8686.8503    36.087919   -8722.9382    11025.964 
   51800    309.97039   -8684.7671    44.350217   -8729.1173   -35778.687 
   52000    289.69541   -8696.8501    41.449295   -8738.2994   -32968.498 
   52200     319.5391   -8687.1231    45.719297   -8732.8424     8718.233 
   52400    315.72272   -8684.4927    45.173253   -8729.6659    41971.721 
   52600    389.74377   -8671.0025    55.764103   -8726.7666    3511.3529 
   52800     263.8056    -8690.138    37.745011    -8727.883    -9578.038 
   53000    325.43563   -8682.2526    46.562967   -8728.8156    21259.041 
   53200    349.68267   -8676.9857    50.032206   -8727.0179    31893.659 
   53400    287.29506   -8692.0986    41.105857   -8733.2044   -13010.067 
   53600     350.3969   -8677.4846    50.134396    -8727.619    7635.3646 
   53800    256.21555   -8696.2033    36.659035   -8732.8623    14718.373 
   54000     303.4953   -8683.1928    43.423768   -8726.6165   -7080.8375 
   54200    259.36738   -8691.0613    37.109995   -8728.1713   -21784.073 
   54400    308.44042   -8685.6089     44.13131   -8729.7402    10936.734 
   54600     356.0542   -8681.6069    50.943837   -8732.5507    17205.893 
   54800    304.10938   -8689.7401    43.511631   -8733.2518    28456.745 
   55000    339.02573   -8676.6602    48.507423   -8725.1677   -80.705894 
   55200    268.24636   -8687.3407    38.380389   -8725.7211    5646.0933 
   55400     285.4637   -8689.5294    40.843827   -8730.3733    39860.114 
   55600    348.86643   -8674.7094    49.915419   -8724.6248    37664.439 
   55800    316.06297   -8672.6831    45.221937   -8717.9051   -2542.8007 
   56000    303.89963   -8690.4775    43.481619   -8733.9591    41518.467 
   56200    240.94176   -8695.1025    34.473677   -8729.5761   -2775.4177 
   56400    316.91561   -8677.9248    45.343931   -8723.2688    52242.125 
   56600    258.09943   -8692.4104    36.928578    -8729.339    2579.1023 
   56800    353.62454   -8681.0003    50.596204   -8731.5965   -17744.301 
   57000    315.73324   -8681.6801    45.174758   -8726.8548    22822.784 
   57200    310.12381   -8688.4628    44.372169   -8732.8349    4681.2154 
   57400    363.11869   -8667.2634    51.954616    -8719.218    678.09665 
   57600    314.32563   -8682.2807     44.97336    -8727.254    -28030.36 
   57800    269.65497   -8687.4162    38.581932   -8725.9981     10578.44 
   58000     256.2267   -8703.5145    36.660629   -8740.1752    37740.956 
   58200    261.91045   -8690.7675    37.473854   -8728.2414    3302.3158 
   58400    279.94098   -8684.4839    40.053643   -8724.5375   -6621.8173 
   58600    263.58529   -8693.0245    37.713488    -8730.738    14478.252 
   58800    284.80005   -8690.1969    40.748873   -8730.9458   -39747.707 
   59000    292.03317   -8681.9308     41.78378   -8723.7146   -23703.132 
   59200    346.17461   -8682.0991    49.530276   -8731.6294   -33246.559 
   59400    274.96224   -8698.8678     39.34129    -8738.209   -14239.897 
   59600    332.92714   -8688.9859    47.634843   -8736.6207   -32856.689 
   59800    323.79828   -8682.2542    46.328696   -8728.5829   -19726.448 
   60000    251.57351   -8696.6604    35.994857   -8732.6553   -24697.961 
   60200    264.76449   -8691.7333    37.882208   -8729.6155   -8377.7919 
   60400    305.90087   -8686.6891    43.767955    -8730.457    43879.125 
   60600    287.31421   -8694.7499    41.108596   -8735.8585   -10883.059 
   60800      327.278   -8687.3715    46.826571   -8734.1981   -2849.1598 
   61000    308.85155   -8681.8163    44.190134   -8726.0065    9250.5479 
   61200    251.43103   -8694.7066     35.97447    -8730.681    5547.0128 
   61400     286.6986   -8695.7003    41.020516   -8736.7208   -9038.7296 
   61600    301.29249   -8679.1353    43.108593   -8722.2439   -34147.525 
   61800    264.41171   -8694.0643    37.831731    -8731.896   -1559.7895 
   62000    279.54479   -8693.7203    39.996956   -8733.7173   -6496.8737 
   62200    332.25075   -8678.2179    47.538066   -8725.7559    8915.3856 
   62400    324.31189   -8686.2201    46.402183   -8732.6223    13690.476 
   62600    270.06002   -8691.5576    38.639886   -8730.1975   -19238.447 
   62800    329.72127   -8674.7467    47.176151   -8721.9229    8179.8413 
   63000    254.36504   -8692.5186    36.394266   -8728.9128   -4542.5945 
   63200     296.6919   -8688.4017    42.450346    -8730.852   -37264.593 
   63400    302.50019   -8683.8749     43.28139   -8727.1563   -32551.791 
   63600    304.36902   -8690.8953     43.54878   -8734.4441    24383.739 
   63800    249.87123   -8697.4029    35.751296   -8733.1542    5636.8902 
   64000     325.0831   -8684.7236    46.512527   -8731.2361    31987.314 
   64200    306.66007   -8682.4178    43.876579   -8726.2944   -14420.888 
   64400     239.0103   -8698.7476    34.197327   -8732.9449   -259.18027 
   64600    296.86322   -8687.3862    42.474857    -8729.861   -16752.604 
   64800    345.70432   -8687.6277    49.462988   -8737.0907    15665.318 
   65000    258.27351   -8701.5213    36.953485   -8738.4748    27240.229 
   65200    276.54756   -8687.2361    39.568116   -8726.8042    8404.8954 
   65400    296.01985   -8685.6446    42.354189   -8727.9988     38050.32 
   65600     256.6064   -8688.3925    36.714957   -8725.1074   -3264.3611 
   65800     243.3257   -8697.3763    34.814769   -8732.1911    25129.794 
   66000    277.89955   -8681.2912    39.761557   -8721.0528    8894.7812 
   66200    264.89032   -8692.5934    37.900211   -8730.4936    57773.128 
   66400     257.1199   -8691.5503    36.788429   -8728.3387   -36010.868 
   66600    298.09657   -8683.9232    42.651324   -8726.5745    2708.2863 
   66800    297.16233   -8686.8439    42.517654   -8729.3615    3980.9913 
   67000    223.61864   -8695.3778    31.995105   -8727.3729   -28971.374 
   67200    293.75071   -8682.0952    42.029523   -8724.1248   -9677.7715 
   67400    307.15056      -8689.2    43.946759   -8733.1467   -17681.969 
   67600    242.65074   -8705.0612    34.718197   -8739.7794   -4335.2707 
   67800     325.3865   -8689.0251    46.555936   -8735.5811   -10892.299 
   68000     301.6709   -8685.5091    43.162735   -8728.6719   -29343.755 
   68200    259.51395   -8687.8509    37.130965   -8724.9819   -4548.3612 
   68400    311.22471   -8684.8768    44.529684   -8729.4065    742.25002 
   68600     304.8846   -8676.6438    43.622548   -8720.2663    35178.801 
   68800     237.3321   -8695.2247    33.957212   -8729.1819    31718.563 
   69000    303.71494   -8683.6044    43.455195   -8727.0596   -27075.256 
   69200    350.59461   -8676.2501    50.162685   -8726.4128    5804.0519 
   69400    247.74993   -8693.1239    35.447784   -8728.5717   -14666.994 
   69600    333.41641   -8680.9512    47.704848    -8728.656    9022.5732 
   69800    244.65309   -8685.8702    35.004691   -8720.8749   -6817.2979 
   70000    283.87472   -8685.1699    40.616477   -8725.7864    14921.792 
   70200     309.2083   -8690.9565    44.241178   -8735.1977   -20639.799 
   70400    248.24613   -8696.2791    35.518779   -8731.7979     16801.82 
   70600     302.4396     -8684.46     43.27272   -8727.7327     -7818.09 
   70800    263.75918    -8691.129    37.738369   -8728.8674   -276.57104 
   71000    346.45282   -8681.7904    49.570082   -8731.3605   -9539.8919 
   71200    327.30668    -8684.065    46.830674   -8730.8956   -21539.841 
   71400    239.07025     -8691.78    34.205904    -8725.986    24570.741 
   71600    334.09223   -8682.8373    47.801542   -8730.6389    28232.118 
   71800    254.68297   -8691.9613    36.439754   -8728.4011    7348.0263 
   72000     227.2859   -8704.3321    32.519813    -8736.852   -29163.601 
   72200    326.83771   -8688.1461    46.763575   -8734.9097    17568.476 
   72400    308.42332   -8681.1231    44.128863   -8725.2519   -28598.785 
   72600    349.60838   -8675.3214    50.021576    -8725.343   -11521.252 
   72800    285.39998   -8691.8061     40.83471   -8732.6408    8809.3256 
   73000     354.5937   -8679.8041     50.73487    -8730.539    1290.0411 
   73200    321.03853    -8675.084    45.933834   -8721.0178    10962.817 
   73400    278.07297   -8693.0249     39.78637   -8732.8112   -14176.787 
   73600    290.25453    -8683.163    41.529294   -8724.6923   -7743.3295 
   73800    344.07194   -8681.8973    49.229428   -8731.1267    39722.572 
   74000     315.3031   -8688.1543    45.113215   -8733.2675   -16421.834 
   74200    284.96684   -8687.8568    40.772738   -8728.6296   -1738.1077 
   74400    246.42887   -8694.9369    35.258767   -8730.1957   -2277.1809 
   74600    339.99057   -8681.5879    48.645471   -8730.2334   -61831.316 
   74800    308.40691   -8678.1722    44.126516   -8722.2987   -4937.6702 
   75000    306.69712   -8691.9045    43.881881   -8735.7864    44853.445 
   75200    308.58229    -8695.409    44.151609   -8739.5606   -22131.827 
   75400    342.49756   -8677.9976    49.004168   -8727.0017   -44588.967 
   75600    306.45569   -8683.6075    43.847338   -8727.4548    72767.842 
   75800    328.90172   -8698.3098    47.058891   -8745.3687   -6116.7106 
   76000    262.47479   -8686.8784      37.5546    -8724.433    11394.952 
   76200    307.84029   -8684.3533    44.045444   -8728.3988   -11848.982 
   76400    273.18448     -8690.56     39.08693   -8729.6469   -15727.174 
   76600    316.60667   -8692.2352    45.299729   -8737.5349    16651.516 
   76800    283.59899   -8678.4407    40.577027   -8719.0178    -14309.47 
   77000     296.5988   -8678.4327    42.437024   -8720.8697    14060.078 
   77200    300.90226   -8695.9093    43.052759    -8738.962   -18277.746 
   77400    307.78399   -8688.9091    44.037389   -8732.9465    5694.9152 
   77600    364.69449   -8674.7301     52.18008   -8726.9102   -24872.213 
   77800    282.74811   -8690.1089    40.455284   -8730.5642    -29726.51 
   78000    242.84747   -8691.3898    34.746344   -8726.1361    42491.264 
   78200    323.99302   -8681.7041    46.356559   -8728.0607   -30039.467 
   78400    304.46375   -8685.3435    43.562334   -8728.9059   -8267.3685 
   78600    269.47312   -8690.1706    38.555913   -8728.7265   -23207.785 
   78800    310.38461   -8684.4069    44.409484   -8728.8164   -12114.922 
   79000    355.73152   -8667.0049    50.897669   -8717.9026   -17540.228 
   79200    274.22894   -8684.4719    39.236371   -8723.7082    -12174.68 
   79400    307.96355   -8688.6158     44.06308   -8732.6789    7790.8592 
   79600    299.93913    -8689.353    42.914955    -8732.268   -50288.659 
   79800    383.88836   -8674.5892    54.926317   -8729.5155    25052.032 
   80000    241.72635   -8692.7604    34.585937   -8727.3464   -12607.561 
   80200    335.01036   -8688.3532    47.932907   -8736.2861    46984.672 
   80400    305.96257   -8680.1842    43.776783    -8723.961   -34908.326 
   80600     285.3634   -8690.4886    40.829477   -8731.3181   -5717.5012 
   80800    346.89813   -8688.1623    49.633797   -8737.7961    5777.8838 
   81000     343.8073   -8673.6426    49.191565   -8722.8341   -26886.768 
   81200    278.37219   -8694.8523    39.829182   -8734.6815    8021.6087 
   81400    301.16012    -8688.186    43.089653   -8731.2757   -9825.0664 
   81600    303.89741   -8678.2398    43.481301   -8721.7211    3589.6856 
   81800    316.24243    -8685.329    45.247614   -8730.5766   -18758.016 
   82000    323.33149   -8691.9441    46.261908    -8738.206   -24097.852 
   82200    398.46841   -8673.3251    57.012415   -8730.3376     15895.11 
   82400    288.24397   -8681.4811    41.241625   -8722.7227   -51110.978 
   82600    310.16352   -8687.4677    44.377849   -8731.8456     28367.45 
   82800    270.75753    -8699.936    38.739685   -8738.6757   -18445.497 
   83000    323.24806   -8689.7663    46.249972   -8736.0163    11217.221 
   83200    299.41694    -8681.407    42.840241   -8724.2472   -5489.2113 
   83400    323.02276   -8693.0661    46.217735   -8739.2838   -34448.927 
   83600     320.6193   -8692.7335    45.873851   -8738.6073    18164.598 
   83800     302.4631   -8682.6954    43.276082   -8725.9715   -37831.113 
   84000    257.00827   -8684.7905    36.772457   -8721.5629    28782.737 
   84200    240.59844   -8704.1056    34.424556   -8738.5302    1251.1573 
   84400    255.30754   -8688.7188    36.529117   -8725.2479   -54798.319 
   84600    327.88973   -8679.7991    46.914096   -8726.7132    12066.146 
   84800    302.68629   -8693.0221    43.308016   -8736.3301    29006.796 
   85000    287.20431    -8694.116    41.092871   -8735.2089   -12364.826 
   85200    336.42053   -8683.0022    48.134673   -8731.1369   -38758.456 
   85400    237.25105   -8692.0827    33.945616   -8726.0283    26492.087 
   85600    225.37339   -8705.1918    32.246172    -8737.438   -23913.124 
   85800    291.79948     -8690.43    41.750343   -8732.1804    16218.775 
   86000    297.34472   -8683.7937     42.54375   -8726.3375   -55298.062 
   86200    267.97662   -8693.6146    38.341795   -8731.9564    4254.0577 
   86400    273.42095   -8688.9671    39.120764   -8728.0878    44734.091 
   86600    323.63881   -8681.5717     46.30588   -8727.8775    515.64253 
   86800    295.66677   -8686.3876     42.30367   -8728.6912   -407.34435 
   87000    239.87023   -8705.2804    34.320364   -8739.6008    8219.2036 
   87200    278.54903   -8690.3162    39.854484   -8730.1707   -24864.878 
   87400    401.42238   -8680.7949    57.435065     -8738.23     5182.101 
   87600    348.34072   -8681.8713      49.8402   -8731.7115    443.83966 
   87800    303.24627   -8690.7672    43.388137   -8734.1554    12073.093 
   88000    349.39042   -8677.6339    49.990391   -8727.6243   -41657.015 
   88200    305.81355   -8680.4468    43.755461   -8724.2023   -3521.5335 
   88400    274.93695   -8696.9555    39.337672   -8736.2932   -29266.658 
   88600     279.4702   -8687.5766    39.986285   -8727.5629     -29628.2 
   88800    285.23134   -8676.8647    40.810581   -8717.6753    20253.666 
   89000    284.42195   -8693.8331    40.694775   -8734.5279    33076.173 
   89200    247.73171   -8692.5839    35.445177   -8728.0291    575.73078 
   89400     342.0654   -8678.0861    48.942335   -8727.0284    9733.9221 
   89600      282.672   -8688.6852    40.444393   -8729.1296   -28611.846 
   89800    232.51322   -8690.9606    33.267732   -8724.2283   -28469.444 
   90000    301.74378   -8685.4105    43.173163   -8728.5836   -13085.597 
   90200    334.54896   -8677.4539    47.866892   -8725.3208    22020.668 
   90400    306.70664   -8690.8194    43.883244   -8734.7027    -15028.42 
   90600    297.51103   -8693.6002    42.567546   -8736.1677   -14344.877 
   90800    349.11777   -8669.9144    49.951381   -8719.8657    16980.308 
   91000    302.78112    -8681.547    43.321584   -8724.8686    12156.616 
   91200     277.8381   -8696.0456    39.752765   -8735.7983    4227.9613 
   91400    305.61207   -8678.4801    43.726634   -8722.2067   -23341.795 
   91600    252.20779   -8679.6219    36.085608   -8715.7075   -10481.761 
   91800    265.52625   -8694.5052    37.991199   -8732.4964   -4533.2299 
   92000    272.56638   -8698.4027    38.998494   -8737.4012    4430.3799 
   92200    310.84834   -8680.8127    44.475833   -8725.2885    17412.841 
   92400    246.62529   -8693.3309    35.286871   -8728.6178     39924.84 
   92600    353.99513   -8683.2419    50.649227   -8733.8912    10177.958 
   92800    306.06015   -8681.6961    43.790744   -8725.4868    -24524.68 
   93000    329.61403   -8683.2358    47.160807   -8730.3966    -12192.75 
   93200    366.36139   -8670.8387    52.418578   -8723.2573    11625.709 
   93400    298.00185   -8689.8842    42.637771   -8732.5219   -23790.871 
   93600    290.26057   -8685.8401    41.530157   -8727.3702   -7737.0092 
   93800    345.58058   -8672.1837    49.445283   -8721.6289   -20023.339 
   94000    314.94512   -8687.7789    45.061996   -8732.8409   -15767.227 
   94200    256.81406   -8694.6948    36.744669   -8731.4395    29713.376 
   94400    360.41947   -8676.7402    51.568415   -8728.3086    17108.317 
   94600    313.20108   -8682.5412    44.812461   -8727.3537    2377.5223 
   94800    254.45525   -8695.3046    36.407173   -8731.7118    1048.8597 
   95000     295.4508   -8675.7483     42.27277   -8718.0211   -1347.6374 
   95200     298.2455   -8683.9425    42.672633   -8726.6151   -1931.0504 
   95400    303.71001   -8693.6423    43.454489   -8737.0967    13165.643 
   95600    325.20842   -8676.0667    46.530458   -8722.5971    22715.715 
   95800    324.27497   -8681.6471      46.3969    -8728.044    27650.344 
   96000    258.28672   -8690.1332    36.955376   -8727.0886     12122.38 
   96200    297.98123   -8689.4726    42.634821   -8732.1074   -25831.579 
   96400    306.84235   -8684.2823     43.90266    -8728.185    14424.772 
   96600     432.3583   -8667.9414    61.861342   -8729.8027   -39231.267 
   96800    281.81016   -8689.8578    40.321082   -8730.1789    22109.761 
   97000    273.41916   -8684.4597    39.120509   -8723.5802   -34053.548 
   97200    340.07114   -8675.3709    48.656999   -8724.0279   -14602.613 
   97400    241.84979   -8695.0522    34.603598   -8729.6558    8034.6992 
   97600    288.80818   -8683.2136    41.322351    -8724.536   -33178.555 
   97800    290.45504   -8688.7361    41.557983   -8730.2941   -14575.198 
   98000    264.96903   -8695.3291    37.911472   -8733.2406   -21096.002 
   98200    336.39482   -8685.5361    48.130995   -8733.6671     25893.02 
   98400    340.32146   -8666.4216    48.692815   -8715.1144    8442.7449 
   98600    325.01821   -8679.0414    46.503243   -8725.5447   -17848.925 
   98800    307.01805   -8688.5356    43.927799   -8732.4634   -2700.7918 
   99000    250.08363   -8689.4583    35.781686   -8725.2399    5885.6356 
   99200    372.08997   -8680.3178    53.238217    -8733.556   -14715.843 
   99400    285.69753   -8697.3361    40.877283   -8738.2134    17996.176 
   99600    313.97213    -8688.131    44.922781   -8733.0538   -9309.7634 
   99800    399.63868   -8666.5621    57.179855   -8723.7419   -13376.987 
  100000    281.54629   -8680.0021    40.283329   -8720.2854    45070.889 
  100200     311.2548   -8688.0768     44.53399   -8732.6108    11695.017 
  100400    299.50232   -8685.8767    42.852457   -8728.7291   -29790.243 
  100600    351.56946    -8673.437    50.302166   -8723.7392    75924.498 
  100800    309.42355   -8690.3778    44.271975   -8734.6497   -12090.844 
  101000    312.77155   -8686.6243    44.751003   -8731.3753   -11668.083 
  101200    338.21283   -8681.0111    48.391114   -8729.4022    20719.652 
  101400    327.03318   -8688.7379    46.791543   -8735.5294   -46421.837 
  101600    243.87889   -8696.0985    34.893919   -8730.9924    27350.667 
  101800    297.15925   -8678.3159    42.517214   -8720.8332    20952.704 
  102000    286.98361   -8687.1055    41.061294   -8728.1668    1963.9652 
  102200    290.73174   -8701.3093    41.597572   -8742.9069    993.50319 
  102400    264.35083   -8693.3975    37.823021   -8731.2205   -18136.266 
  102600    285.95897   -8683.1574     40.91469   -8724.0721    13143.704 
  102800     270.2044   -8693.3675    38.660544    -8732.028    4197.7851 
  103000    246.00951   -8690.1133    35.198765   -8725.3121    18049.619 
  103200    299.79431   -8685.2703    42.894235   -8728.1645    -18244.74 
  103400    280.46494   -8695.1689     40.12861   -8735.2976     11034.22 
  103600    266.50371   -8697.1757    38.131053   -8735.3067    -3503.366 
  103800     297.8679   -8682.5349    42.618607   -8725.1536   -25147.218 
  104000    306.99916   -8688.1551    43.925096   -8732.0802    4306.8019 
  104200     309.4025   -8692.5412    44.268963   -8736.8102     7626.355 
  104400    306.65378   -8678.0303     43.87568   -8721.9059   -12760.073 
  104600    313.37848   -8677.5181    44.837843    -8722.356      47025.6 
  104800    283.67211    -8696.089    40.587488   -8736.6765   -17068.802 
  105000    272.68819   -8685.8827    39.015921   -8724.8986    3936.8159 
  105200    307.12239   -8681.3053    43.942728    -8725.248    26987.595 
  105400    251.78371   -8689.4432    36.024932   -8725.4681   -10521.535 
  105600    379.32099   -8671.9368    54.272824   -8726.2096    6821.0564 
  105800    304.03848   -8682.6885    43.501486     -8726.19    12904.886 
  106000    311.03764   -8682.3534    44.502918   -8726.8563    24236.526 
  106200    275.29944   -8696.7752    39.389536   -8736.1647    9556.9312 
  106400    271.79002   -8693.7507    38.887412   -8732.6381     -14016.4 
  106600      264.189    -8680.239    37.799867   -8718.0389   -3633.9947 
  106800    283.16031   -8689.5602     40.51426   -8730.0745   -11169.873 
  107000    270.57158   -8694.2376    38.713079   -8732.9507   -11762.963 
  107200     304.1522   -8686.3384    43.517757   -8729.8562    42781.443 
  107400    336.55859   -8674.2705    48.154428   -8722.4249   -3067.1808 
  107600    287.05939   -8692.8593    41.072137   -8733.9315    1966.3078 
  107800     320.3053   -8688.7317    45.828925   -8734.5606    54687.415 
  108000    349.57862   -8678.7722    50.017318   -8728.7895   -32234.682 
  108200    262.42125   -8697.0601    37.546939    -8734.607   -6022.7312 
  108400    314.04713   -8684.0032    44.933512   -8728.9367   -8710.5168 
  108600    274.68318   -8684.6059    39.301363   -8723.9073   -8138.3856 
  108800    304.69731    -8689.766    43.595751   -8733.3618    27284.767 
  109000    303.91938   -8689.5461    43.484445   -8733.0306   -17557.975 
  109200    338.92559   -8682.7878    48.493094   -8731.2809   -5491.3367 
  109400    300.01067   -8695.4474    42.925191   -8738.3725   -24200.575 
  109600     355.9143   -8678.8923    50.923821   -8729.8161    4745.4806 
  109800    327.78772   -8680.5142    46.899501   -8727.4137    20778.137 
  110000    281.69645   -8691.0664    40.304813   -8731.3712    20105.699 
  110200    277.82561    -8697.901    39.750977   -8737.6519    77272.804 
  110400    306.31281   -8687.6764    43.826895   -8731.5033   -40568.124 
  110600    269.03434   -8689.8019    38.493133   -8728.2951   -3241.2585 
  110800    277.97889   -8690.5072    39.772909   -8730.2801    25363.777 
  111000    334.41899   -8677.3657    47.848295   -8725.2139    53721.437 
  111200    246.80397     -8693.27    35.312436   -8728.5824   -524.70316 
  111400    308.47578   -8685.0197    44.136369   -8729.1561   -37974.799 
  111600    308.81952   -8679.0189    44.185552   -8723.2044   -25233.198 
  111800    269.31612   -8695.7176     38.53345    -8734.251    18460.084 
  112000    288.80906   -8689.7502    41.322477   -8731.0727   -25409.144 
  112200    353.92703   -8675.3998    50.639483   -8726.0393    55168.628 
  112400    292.12008   -8686.1306    41.796214   -8727.9268   -4791.7615 
  112600    314.89167   -8692.4528    45.054349   -8737.5071   -4036.8409 
  112800    357.65589   -8673.1411    51.173004   -8724.3141    1510.1174 
  113000    299.30509   -8683.0934    42.824237   -8725.9177    26058.504 
  113200    272.80155   -8691.7369     39.03214    -8730.769   -27309.912 
  113400    320.15288    -8687.967    45.807116   -8733.7741     2036.826 
  113600    297.02291   -8688.1358    42.497706   -8730.6335   -7177.5969 
  113800    293.85088   -8690.2453    42.043855   -8732.2892   -28872.235 
  114000    304.34196   -8681.8944    43.544908   -8725.4393   -665.46602 
  114200    308.89738   -8677.7814    44.196692   -8721.9781    438.96085 
  114400    305.15087   -8692.7162    43.660646   -8736.3769    20507.907 
  114600    268.67378   -8688.1925    38.441545   -8726.6341   -29360.827 
  114800    323.80014   -8685.3905    46.328963   -8731.7194   -14049.359 
  115000    309.96656   -8684.5074    44.349669   -8728.8571   -9779.3369 
  115200      268.605   -8696.9264    38.431703   -8735.3581   -28971.408 
  115400    345.39395   -8681.4563     49.41858   -8730.8749      2826.37 
  115600    278.27599   -8682.9983    39.815418   -8722.8137   -12063.918 
  115800    265.70226   -8695.6836    38.016382      -8733.7    11207.648 
  116000    267.21697   -8692.1935    38.233105   -8730.4266   -8691.5959 
  116200    318.46503   -8686.2586     45.56562   -8731.8242   -26277.921 
  116400     243.7415   -8697.0162    34.874261   -8731.8904     6210.839 
  116600    338.46154   -8679.1296    48.426698   -8727.5563   -31861.569 
  116800    262.24305   -8685.0304    37.521443   -8722.5519    16269.813 
  117000    338.91532   -8685.8293    48.491626    -8734.321    28680.102 
  117200    266.69938   -8690.8835     38.15905   -8729.0426   -19705.447 
  117400    396.98431   -8675.2414    56.800071   -8732.0415   -18345.479 
  117600    306.40054   -8687.9675    43.839446   -8731.8069    25536.076 
  117800    305.77497   -8693.1364     43.74994   -8736.8864    6581.3943 
  118000    283.23245   -8686.4787    40.524582   -8727.0033   -10986.484 
  118200     307.2645   -8678.5668    43.963061   -8722.5298   -18327.567 
  118400    241.47237    -8691.137    34.549596   -8725.6866     16293.56 
  118600    331.92514   -8684.4216    47.491478    -8731.913    30308.311 
  118800    310.36465   -8688.4059    44.406627   -8732.8126   -8688.1009 
  119000    315.84925   -8691.9489    45.191357   -8737.1403   -2429.6542 
  119200    285.67083   -8696.1145    40.873463   -8736.9879   -7004.6846 
  119400    277.13402   -8681.5563    39.652026   -8721.2083    -40200.34 
  119600    258.99573   -8687.5105    37.056819   -8724.5673   -13440.033 
  119800    284.75918    -8685.621    40.743025    -8726.364    54737.324 
  120000    334.23853   -8673.4905    47.822475    -8721.313   -26805.897 
  120200    272.13937   -8686.6808    38.937397   -8725.6182    37295.077 
  120400    314.24312    -8691.501    44.961554   -8736.4626     11674.85 
  120600     298.0245   -8686.8569    42.641012    -8729.498   -29621.967 
  120800    342.04901   -8671.5498    48.939991   -8720.4898    7123.0116 
  121000    275.96902   -8690.2683    39.485339   -8729.7536    24421.491 
  121200     281.3442   -8690.1608    40.254414   -8730.4152     45876.09 
  121400    369.39883   -8671.6109    52.853172    -8724.464    21198.882 
  121600     282.0553    -8688.168    40.356158   -8728.5241    16544.536 
  121800    314.34324   -8686.9093     44.97588   -8731.8852    31864.978 
  122000    297.49318   -8683.8341    42.564991    -8726.399   -13371.993 
  122200    301.30274   -8695.6358     43.11006   -8738.7458    4052.1365 
  122400    253.33711   -8684.5492    36.247191   -8720.7964    -3693.409 
  122600    314.14145   -8668.6481    44.947007   -8713.5951    39699.641 
  122800    313.06574   -8679.0437    44.793096   -8723.8368   -16091.592 
  123000    276.77166   -8689.7398     39.60018     -8729.34    1348.9866 
  123200     292.9357   -8692.1702    41.912912   -8734.0832    -13104.57 
  123400    346.89317   -8676.8496    49.633087   -8726.4827    20118.693 
  123600    256.06507   -8694.0539    36.637504   -8730.6914    34007.328 
  123800    302.34086   -8683.1954    43.258593    -8726.454    24915.391 
  124000    347.32759   -8665.4782    49.695244   -8715.1735   -26816.873 
  124200    294.75199   -8678.2444    42.172785   -8720.4171   -27307.544 
  124400    289.06435   -8689.9516    41.359005   -8731.3106   -10231.308 
  124600    290.36399   -8692.0576    41.544955   -8733.6026   -15883.108 
  124800    251.92209   -8687.2017    36.044732   -8723.2465   -12547.351 
  125000    342.83423   -8680.2788    49.052338   -8729.3312   -25499.386 
  125200    244.31086   -8693.6238    34.955724   -8728.5795    2716.8406 
  125400    284.01348   -8681.3323    40.636331   -8721.9686   -22529.703 
  125600    286.50445   -8686.8929    40.992736   -8727.8856    14425.779 
  125800    236.48833   -8697.5206    33.836485   -8731.3571    25457.795 
  126000    322.03405   -8680.0594    46.076271   -8726.1357   -16514.825 
  126200     307.9861    -8688.298    44.066307   -8732.3643    1207.3877 
  126400    260.40888   -8701.8404    37.259011   -8739.0994   -26773.135 
  126600    324.68182   -8685.5269    46.455113    -8731.982    15687.715 
  126800    281.77807   -8685.0723    40.316491   -8725.3888     16746.77 
  127000    349.54017   -8677.6011    50.011816   -8727.6129   -3500.8264 
  127200    238.07389   -8692.9023    34.063346   -8726.9656   -5502.4438 
  127400      347.973   -8682.6561    49.787587   -8732.4437    16361.008 
  127600    307.73994   -8688.9964    44.031086   -8733.0275    8366.2567 
  127800    340.28628   -8685.1883    48.687781   -8733.8761   -2982.2658 
  128000    265.76297   -8693.7353    38.025069   -8731.7604    2571.2641 
  128200    360.86727   -8689.2133    51.632486   -8740.8458    35200.373 
  128400    314.12672   -8675.9779      44.9449   -8720.9228    28060.943 
  128600    335.38648   -8682.1744    47.986723   -8730.1611   -27557.265 
  128800    243.36399   -8691.5483    34.820248   -8726.3686    29442.072 
  129000    338.36798   -8679.9286    48.413312   -8728.3419   -18241.047 
  129200    279.55574   -8698.3114    39.998523   -8738.3099    3231.9668 
  129400    298.38614   -8687.1931    42.692756   -8729.8858    4170.4544 
  129600    285.77418   -8679.7442    40.888251   -8720.6325    14612.367 
  129800    320.09729   -8675.8796    45.799162   -8721.6788    12415.181 
  130000    271.69516   -8691.4181    38.873839   -8730.2919   -15037.809 
  130200    358.05005   -8680.1266    51.229401    -8731.356    4250.5704 
  130400    335.48873   -8671.0163    48.001353   -8719.0176   -32133.766 
  130600    289.16371   -8688.5683     41.37322   -8729.9416    11298.951 
  130800    268.54794   -8695.2398    38.423539   -8733.6634   -15880.598 
  131000    338.56018   -8678.2397    48.440812   -8726.6805   -19492.179 
  131200    289.19516   -8684.5671    41.377721   -8725.9448    40576.798 
  131400    263.20172   -8695.8432    37.658608   -8733.5018    10311.183 
  131600    283.59532   -8686.7333    40.576501   -8727.3098   -1005.9226 
  131800     289.5134   -8688.8097    41.423253    -8730.233    19818.512 
  132000    260.81532   -8702.1012    37.317165   -8739.4184   -4006.1008 
  132200    278.40469   -8690.1487    39.833832   -8729.9825   -9091.7832 
  132400    286.77569   -8681.4286    41.031545   -8722.4601    1321.4134 
  132600    390.78641   -8665.1222    55.913282   -8721.0355    6075.1604 
  132800    280.18033   -8689.9658    40.087888   -8730.0536    21910.596 
  133000    312.22528   -8686.8672    44.672844   -8731.5401    27270.342 
  133200    331.07021   -8676.2448    47.369155    -8723.614    -18267.81 
  133400    255.94149   -8695.2447    36.619823   -8731.8646    1903.0016 
  133600    292.73541   -8685.6636    41.884255   -8727.5478    10024.502 
  133800    294.48269   -8683.9989    42.134254   -8726.1331    47494.167 
  134000     286.9047   -8679.1297    41.050004   -8720.1797   -15774.451 
  134200    267.18473   -8693.1902    38.228493   -8731.4187    60942.857 
  134400    316.80076   -8685.3987    45.327499   -8730.7262   -774.17939 
  134600     252.2174   -8683.0636    36.086984   -8719.1506    35758.044 
  134800    315.54613   -8691.3875    45.147987   -8736.5355      9461.19 
  135000    201.47735   -8697.1434    28.827154   -8725.9705   -1017.8091 
  135200    374.62532   -8677.6069    53.600972   -8731.2079    18864.532 
  135400    283.55992   -8692.4244    40.571436   -8732.9959    6780.3478 
  135600    320.74275   -8678.7904    45.891514   -8724.6819   -45402.824 
  135800    274.02243   -8683.5146    39.206824   -8722.7214    638.09732 
  136000      263.973   -8699.2118    37.768962   -8736.9808   -17361.036 
  136200      255.404   -8707.6708    36.542919   -8744.2137    29950.348 
  136400     262.6085   -8689.1206    37.573731   -8726.6943    38799.306 
  136600    341.82666   -8678.5274    48.908177   -8727.4356    17216.396 
  136800    291.90886   -8693.8806    41.765994   -8735.6466   -17060.314 
  137000    387.21532   -8676.4261    55.402335   -8731.8285   -31785.224 
  137200     307.7578   -8685.1833    44.033642   -8729.2169     -11573.8 
  137400    297.59057   -8692.2347    42.578927   -8734.8137   -2273.7267 
  137600    311.78393   -8680.3619    44.609696   -8724.9716   -24122.039 
  137800    246.42041   -8687.1632    35.257557   -8722.4207   -76.608009 
  138000    288.37988   -8689.5724    41.261071   -8730.8335    7216.4277 
  138200    241.21101   -8688.7793    34.512202   -8723.2915   -16858.601 
  138400    325.07843   -8679.3193    46.511858   -8725.8311    58445.048 
  138600     297.6542   -8692.5869    42.588031    -8735.175   -28583.495 
  138800    254.64573   -8687.5514    36.434426   -8723.9858    20273.613 
  139000    303.22936   -8688.1272    43.385718    -8731.513    38326.058 
  139200    267.89057   -8700.5473    38.329484   -8738.8768   -4939.7602 
  139400    286.39003   -8686.3925    40.976365   -8727.3688   -32200.237 
  139600    312.12517   -8680.6079    44.658521   -8725.2664   -21495.545 
  139800    274.48119   -8696.0136    39.272462   -8735.2861   -25514.911 
  140000    300.60336    -8689.017    43.009993    -8732.027    8467.8166 
  140200    239.22319   -8689.1925    34.227787   -8723.4203   -31123.278 
  140400    374.68186   -8675.0044    53.609062   -8728.6135    19150.451 
  140600    288.58919   -8691.1284    41.291019   -8732.4194    29810.444 
  140800    294.75846   -8684.7325    42.173711   -8726.9062   -393.58826 
  141000    361.45496   -8670.1878    51.716572   -8721.9044   -1396.9695 
  141200    352.79016   -8681.7971    50.476822   -8732.2739   -2937.7634 
  141400    271.81125   -8690.1942    38.890449   -8729.0847   -700.29251 
  141600    351.70205   -8677.5902    50.321136   -8727.9114   -26383.297 
  141800    254.38083   -8694.7534    36.396525   -8731.1499    8520.9686 
  142000     296.3786   -8688.6094    42.405519   -8731.0149   -37168.682 
  142200    335.07413   -8680.6582    47.942032   -8728.6002    908.66033 
  142400    349.06368    -8678.001    49.943641   -8727.9446    39671.497 
  142600    236.05368   -8694.7143    33.774296   -8728.4886   -38682.018 
  142800    285.16937   -8683.9712    40.801715   -8724.7729    7931.3934 
  143000    306.40906   -8685.0087    43.840666   -8728.8493   -1157.8357 
  143200    292.95027   -8694.3341    41.914998   -8736.2491     11130.43 
  143400    316.00246   -8683.1742    45.213279   -8728.3875   -24633.491 
  143600     298.1912   -8682.0206    42.664863   -8724.6855    34315.091 
  143800    235.36156   -8693.0317    33.675269    -8726.707   -3.1949886 
  144000    301.66184   -8685.8195    43.161439   -8728.9809    1074.2561 
  144200    334.92983   -8684.5274    47.921385   -8732.4488   -29964.815 
  144400    256.86932   -8697.8714    36.752575    -8734.624    2016.4172 
  144600     311.2134   -8681.9781    44.528066   -8726.5062    6570.5819 
  144800    356.17716   -8684.2896     50.96143   -8735.2511    7928.2682 
  145000     291.7468   -8691.2815    41.742806   -8733.0243    39576.475 
  145200    256.50478   -8700.0364    36.700418   -8736.7369   -45661.239 
  145400    343.39324   -8684.6591    49.132321   -8733.7914    53642.927 
  145600    285.21825   -8690.3573    40.808709    -8731.166   -18312.398 
  145800    235.64729   -8701.9889    33.716151    -8735.705   -15874.693 
  146000    291.00263   -8684.3045    41.636331   -8725.9408   -54772.863 
  146200    278.39985   -8690.1784     39.83314   -8730.0115    30651.443 
  146400    283.93597     -8684.11    40.625241   -8724.7353    15617.704 
  146600    261.23594   -8681.7883    37.377346   -8719.1657    21593.238 
  146800    304.99945   -8689.6792     43.63898   -8733.3182    209.60475 
  147000     311.6545   -8686.8827    44.591178   -8731.4739   -53685.901 
  147200    265.73011   -8690.5624    38.020368   -8728.5828    8170.4805 
  147400    246.18352   -8699.3563    35.223663     -8734.58    37651.313 
  147600    306.02654   -8682.9017    43.785935   -8726.6877    -11196.12 
  147800    307.25188   -8687.4342    43.961256   -8731.3954    55957.704 
  148000    260.96276   -8694.1952    37.338261   -8731.5335    32417.179 
  148200    306.55449   -8680.5707    43.861474   -8724.4322   -14662.138 
  148400     306.5341    -8679.172    43.858557   -8723.0305   -9486.7042 
  148600     268.8528   -8696.1872    38.467158   -8734.6544    14143.391 
  148800    325.01766    -8682.903    46.503164   -8729.4062    6625.9896 
  149000    360.69912   -8678.5859    51.608427   -8730.1943   -40030.404 
  149200    289.89714   -8696.3229    41.478159   -8737.8011    38176.544 
  149400      343.839   -8682.4684    49.196099   -8731.6645    24588.628 
  149600    324.31764   -8675.4343    46.403006   -8721.8373   -15354.132 
  149800    283.52421   -8694.5793    40.566328   -8735.1456    14017.912 
  150000    274.68726   -8692.0765    39.301947   -8731.3784     -27183.7 
  150200    318.91637   -8681.2388    45.630198    -8726.869   -1321.3839 
  150400    276.36336     -8693.01    39.541761   -8732.5517    6846.7279 
  150600    218.96214   -8702.0971    31.328858    -8733.426    24002.698 
  150800    311.04383   -8685.1461    44.503804   -8729.6499   -24481.237 
  151000    286.16712   -8681.9185    40.944472    -8722.863   -10693.419 
  151200    269.43278   -8694.1522    38.550141   -8732.7024    843.17184 
  151400    381.78148   -8678.3644    54.624868   -8732.9892    -15603.24 
  151600    248.60679   -8687.0099    35.570382   -8722.5803   -29712.894 
  151800    219.49646   -8700.3865    31.405309   -8731.7918   -2655.9218 
  152000    290.32812   -8695.5989    41.539822   -8737.1387    17429.147 
  152200    334.07931   -8685.4815    47.799694   -8733.2812   -19991.404 
  152400    361.46333   -8671.9826    51.717769   -8723.7003   -5955.7409 
  152600    316.52132   -8679.5465    45.287516    -8724.834    1066.3419 
  152800    282.36796   -8690.7951    40.400892    -8731.196   -19069.158 
  153000    283.00683   -8693.2511    40.492301   -8733.7434    26625.995 
  153200    251.78286   -8679.1628     36.02481   -8715.1876    25884.959 
  153400    248.33002   -8691.0878    35.530782   -8726.6186    31279.294 
  153600    306.05522   -8691.2066    43.790039   -8734.9966   -23682.176 
  153800     315.2019   -8670.4706    45.098735   -8715.5694    23380.137 
  154000     336.3112   -8680.7885     48.11903   -8728.9075    24908.018 
  154200    274.86793   -8693.3205    39.327796   -8732.6483    32456.229 
  154400    354.13762   -8678.2379    50.669614   -8728.9075   -3766.4893 
  154600     403.9813    -8673.619    57.801193   -8731.4202    26182.769 
  154800    301.34544   -8688.7792    43.116169   -8731.8954   -10573.357 
  155000    223.71381   -8694.4426    32.008722   -8726.4513    12552.851 
  155200    296.18284   -8680.6166     42.37751   -8722.9941    59699.771 
  155400    250.90465   -8694.2096    35.899157   -8730.1088    10458.468 
  155600    294.31892    -8690.418    42.110822   -8732.5288    21453.762 
  155800    319.56184   -8674.0783    45.722551   -8719.8009   -6983.9285 
  156000    312.23411   -8672.6052    44.674107   -8717.2793   -3904.1125 
  156200    280.81317   -8689.3772    40.178434   -8729.5557    24252.587 
  156400     269.7837   -8690.5966    38.600351   -8729.1969   -36034.817 
  156600    329.86695   -8679.7691    47.196995   -8726.9661     9026.518 
  156800    324.29572   -8687.5739     46.39987   -8733.9737   -9969.4594 
  157000    250.83079   -8693.0216     35.88859   -8728.9102    -10956.79 
  157200    268.67422   -8685.9728    38.441607   -8724.4144   -10558.796 
  157400    327.26601   -8684.7317    46.824855   -8731.5566    4791.7915 
  157600    291.49395    -8684.404    41.706629   -8726.1106    18827.951 
  157800    278.37142   -8693.7219    39.829071    -8733.551    -35989.22 
  158000    291.53953    -8693.123     41.71315   -8734.8361   -24411.446 
  158200    367.10442   -8684.9598     52.52489   -8737.4847   -2938.0075 
  158400    265.80492     -8691.57     38.03107   -8729.6011    6285.8537 
  158600    316.79167   -8688.2348    45.326198    -8733.561     18430.53 
  158800    331.90852   -8680.8328      47.4891   -8728.3219   -9642.3364 
  159000    341.85705   -8672.4554    48.912524   -8721.3679   -34367.953 
  159200    283.18104   -8689.6862    40.517227   -8730.2034   -20696.159 
  159400    263.51792    -8691.887     37.70385   -8729.5908    31313.258 
  159600    346.79276   -8673.4643    49.618721    -8723.083   -34753.244 
  159800    316.59978   -8690.7131    45.298743   -8736.0119    6557.8053 
  160000    260.59466   -8690.4459    37.285593   -8727.7315   -4688.5133 
  160200    350.06972   -8673.9254    50.087584    -8724.013     39186.82 
  160400    322.69963   -8678.5966    46.171502   -8724.7681   -14615.899 
  160600    279.40469   -8691.4826     39.97691   -8731.4595    10446.605 
  160800    284.67733   -8684.6987    40.731314     -8725.43   -38433.582 
  161000    315.27688   -8675.5694    45.109464   -8720.6788    27766.017 
  161200      292.391   -8690.0145    41.834977   -8731.8495   -6063.6058 
  161400    259.77691   -8690.0938     37.16859   -8727.2624   -30903.601 
  161600    266.88779   -8695.4037    38.186006   -8733.5897   -28260.057 
  161800    345.93692   -8679.4857    49.496269    -8728.982    47807.447 
  162000    284.61317   -8691.5249    40.722134    -8732.247    -12269.54 
  162200    332.67161   -8676.1687    47.598282    -8723.767    9898.1623 
  162400    261.07542   -8686.0601    37.354379   -8723.4144   -11975.129 
  162600    312.74299   -8686.7599    44.746917   -8731.5068    11500.864 
  162800    376.16463   -8675.0836    53.821215   -8728.9048    15881.664 
  163000    257.89809   -8689.4125    36.899771   -8726.3123    6482.7301 
  163200    323.64069    -8682.635    46.306148   -8728.9412    5872.6833 
  163400    370.61131    -8675.832    53.026652   -8728.8586    36092.055 
  163600      277.062   -8686.1922    39.641722   -8725.8339   -46357.423 
  163800     285.8062    -8688.405    40.892832   -8729.2978    16272.817 
  164000    319.85889   -8685.0561    45.765052   -8730.8212   -11398.627 
  164200    262.26529   -8692.9546    37.524625   -8730.4792     -59566.2 
  164400    344.55019   -8676.1727    49.297856   -8725.4706   -15963.525 
  164600    280.20834    -8686.609    40.091896   -8726.7008   -39352.747 
  164800    324.90207   -8685.9983    46.486625   -8732.4849    23041.387 
  165000    218.46323   -8700.9711    31.257475   -8732.2286   -9587.4863 
  165200    317.91306   -8683.4091    45.486645   -8728.8958    17804.922 
  165400    328.43964   -8689.8193    46.992777   -8736.8121     3894.023 
  165600    264.68671   -8690.1042    37.871078   -8727.9753   -19214.724 
  165800    349.32279   -8679.2632    49.980715   -8729.2439    -18031.28 
  166000    278.31303   -8692.3758    39.820718   -8732.1966     24585.09 
  166200    303.65571   -8687.1399     43.44672   -8730.5866     -2059.38 
  166400     304.1293   -8679.6001     43.51448   -8723.1145    2838.3409 
  166600    270.31597   -8690.9744    38.676507   -8729.6509    89109.323 
  166800    315.02376    -8686.098    45.073248   -8731.1713   -17727.657 
  167000    247.86138   -8680.6676     35.46373   -8716.1313     23338.89 
  167200    324.10548   -8674.0981     46.37265   -8720.4708   -24082.829 
  167400    290.40037   -8692.4829     41.55016   -8734.0331   -33792.859 
  167600    346.70215   -8683.9293    49.605756    -8733.535   -10960.621 
  167800    358.22832    -8678.951    51.254908   -8730.2059    26658.803 
  168000    289.05778   -8695.6734    41.358064   -8737.0315   -2073.4973 
  168200    356.92607   -8680.9661    51.068584   -8732.0347    26164.785 
  168400    341.09044   -8680.6646    48.802838   -8729.4674    -6534.375 
  168600     263.9056     -8695.83    37.759319   -8733.5893   -13687.772 
  168800    279.56194   -8680.6841    39.999409   -8720.6835    37510.858 
  169000      312.753   -8685.1669    44.748349   -8729.9152   -45723.676 
  169200    267.48054   -8695.4778    38.270817   -8733.7487    32362.169 
  169400    312.70566   -8681.6925    44.741577    -8726.434    24999.307 
  169600    333.71413   -8683.9286    47.747445    -8731.676    29759.502 
  169800    268.29549   -8692.9408    38.387419   -8731.3282   -7364.2228 
  170000    344.32018   -8681.4963    49.264946   -8730.7612   -10204.465 
  170200    322.17941   -8678.4744    46.097071   -8724.5714    8539.9683 
  170400    209.42439   -8696.8145    29.964208   -8726.7788   -23980.989 
  170600    336.03355   -8683.6039    48.079305   -8731.6832   -20883.069 
  170800       268.39   -8693.7828    38.400942   -8732.1838   -34572.748 
  171000    259.98207    -8700.329    37.197944   -8737.5269     26984.75 
  171200     286.7832   -8685.8747     41.03262   -8726.9073    -4741.025 
  171400    315.29129   -8679.0087    45.111526   -8724.1203   -8574.8683 
  171600    278.97207    -8694.256    39.915013    -8734.171    29284.803 
  171800    269.01093   -8688.2362    38.489783    -8726.726    -11227.27 
  172000    315.80374   -8683.3489    45.184846   -8728.5338    -21842.14 
  172200    303.77929    -8687.428    43.464402   -8730.8924    24089.235 
  172400    273.09245   -8684.5669    39.073763   -8723.6407   -18414.635 
  172600    374.85045   -8676.0395    53.633183   -8729.6727   -27066.326 
  172800    263.55258   -8691.1829    37.708809   -8728.8917   -10583.744 
  173000    274.59544    -8679.678    39.288808   -8718.9668    35159.741 
  173200    289.12981   -8676.4573     41.36837   -8717.8257   -15010.285 
  173400    264.54822   -8695.1102    37.851263   -8732.9614   -8058.5977 
  173600    295.44162   -8682.3584    42.271457   -8724.6298    42264.682 
  173800    302.73479   -8682.4351    43.314956     -8725.75    19659.051 
  174000    271.45598   -8692.0886    38.839619   -8730.9282   -32737.614 
  174200    317.53848   -8673.0819    45.433051    -8718.515   -13921.245 
  174400    331.37853   -8674.7725     47.41327   -8722.1858    7366.8068 
  174600    344.79621   -8688.6588    49.333056   -8737.9919    22294.862 
  174800    273.98234   -8691.4968    39.201087   -8730.6979   -1201.5124 
  175000    385.20147   -8674.3202    55.114196   -8729.4344    6383.4198 
  175200    327.75872   -8684.3197    46.895351    -8731.215   -1249.9804 
  175400    301.77305   -8692.6362     43.17735   -8735.8135    18312.999 
  175600    332.17522   -8678.5572    47.527259   -8726.0844    13855.768 
  175800     283.8107   -8685.4186    40.607317   -8726.0259    33911.005 
  176000    291.90705   -8693.6951    41.765735   -8735.4609   -10502.264 
  176200     332.0411   -8681.8764     47.50807   -8729.3845    14679.263 
  176400    338.65498   -8684.0871    48.454376   -8732.5415     24691.24 
  176600    268.78019   -8692.5048    38.456769   -8730.9615   -1557.6156 
  176800     318.3318   -8673.7484    45.546559    -8719.295   -3727.6181 
  177000    254.26797   -8686.3343    36.380377   -8722.7147    64369.986 
  177200    273.42893   -8689.6141    39.121906    -8728.736    -6602.409 
  177400    200.52041   -8704.2613    28.690236   -8732.9515   -42083.215 
  177600    334.70062   -8688.2793     47.88859   -8736.1679    29627.617 
  177800      278.037   -8681.7778    39.781223    -8721.559   -29221.982 
  178000    349.31411   -8677.5337    49.979473   -8727.5132    25555.743 
  178200     283.6901    -8692.074    40.590062   -8732.6641   -1092.3894 
  178400     314.1923   -8680.2096    44.954283   -8725.1639    19371.537 
  178600    342.66913   -8675.1531    49.028716   -8724.1819    20304.658 
  178800    245.36353   -8692.9547    35.106339    -8728.061    8203.2456 
  179000    291.73692    -8689.136    41.741393   -8730.8774    15851.897 
  179200    356.50783   -8672.1069    51.008742   -8723.1157    -9791.608 
  179400    276.32827     -8682.09     39.53674   -8721.6268   -2831.2974 
  179600    282.20032   -8693.1565    40.376906   -8733.5334    40625.804 
  179800    305.37378   -8678.4498    43.692539   -8722.1424    22234.838 
  180000    296.71205   -8681.7821    42.453229   -8724.2353    24164.532 
  180200    255.93336   -8691.0722    36.618659   -8727.6908     22036.09 
  180400    344.55312   -8677.8634    49.298275   -8727.1617   -10075.695 
  180600    298.35034   -8681.3832    42.687633   -8724.0709   -10264.866 
  180800    277.62014   -8689.3585    39.721579   -8729.0801    20338.416 
  181000    368.79909   -8670.7064    52.767362   -8723.4738    5270.7122 
  181200    254.82012   -8689.5375    36.459378   -8725.9968    18254.321 
[...]
  950000    298.82917   -8693.0164    42.756144   -8735.7725    39238.935 
  950200    329.98354   -8683.5929    47.213676   -8730.8065    6844.5571 
  950400     265.7406   -8685.9249    38.021868   -8723.9467   -1562.6305 
  950600     308.4914   -8670.6873    44.138605   -8714.8259   -17530.111 
  950800    302.52194   -8681.7025    43.284501    -8724.987    22521.391 
  951000    269.53519   -8690.5388    38.564793   -8729.1036   -10743.153 
  951200    332.17764   -8678.5058    47.527605   -8726.0334    23767.615 
  951400    231.27327   -8695.8349    33.090322   -8728.9252    257.17084 
  951600    324.35973    -8690.091    46.409028   -8736.5001    390.03194 
  951800    293.11029   -8685.0695    41.937893   -8727.0074    750.33174 
  952000    380.51666   -8669.9882    54.443899   -8724.4321    4309.5836 
  952200    285.71887   -8689.4448    40.880337   -8730.3251   -4417.3348 
  952400    266.82099   -8688.1588    38.176449   -8726.3352    24540.904 
  952600    297.38829   -8672.4692    42.549984   -8715.0192   -34255.771 
  952800    322.08724    -8688.695    46.083883   -8734.7789    3016.5111 
  953000    293.86937   -8687.9733    42.046501   -8730.0198   -27682.919 
  953200    327.22954   -8681.5312    46.819637   -8728.3509     -15973.6 
  953400    293.86782   -8682.0322     42.04628   -8724.0785   -14971.661 
  953600    268.83944   -8692.7819    38.465247   -8731.2471   -22803.263 
  953800    329.22067   -8678.4104    47.104526   -8725.5149    18138.012 
  954000    306.95001   -8684.3414    43.918064   -8728.2594    12636.908 
  954200    229.33944   -8695.0206    32.813631   -8727.8343    39392.479 
  954400    318.42529   -8678.8577    45.559934   -8724.4177    34032.328 
  954600    298.23501   -8686.5977    42.671133   -8729.2688   -9116.5757 
  954800    322.54085   -8686.2307    46.148785   -8732.3795    -29666.04 
  955000    246.30226   -8691.3627    35.240652   -8726.6033   -17916.007 
  955200    230.96765   -8699.4728    33.046593   -8732.5194    25756.786 
  955400    316.82534   -8688.6553    45.331016   -8733.9864    30453.122 
  955600    240.96265   -8684.2205    34.476667   -8718.6972    11616.161 
  955800    397.73556    -8669.802     56.90756   -8726.7096    8892.2159 
  956000     290.7634   -8692.1752    41.602102   -8733.7773   -16074.095 
  956200    267.11429   -8688.7437    38.218414   -8726.9621    13400.635 
  956400    371.22306   -8676.7594     53.11418   -8729.8736   -17938.133 
  956600    286.38142   -8685.2843    40.975134   -8726.2595   -11005.977 
  956800    304.34631   -8689.3927    43.545529   -8732.9383   -2169.4985 
  957000    277.35762   -8684.5297    39.684019   -8724.2137    -29783.67 
  957200    289.62048   -8680.0401    41.438574   -8721.4787   -13235.885 
  957400    278.89837   -8694.7014    39.904468   -8734.6059   -5555.9981 
  957600    274.14174   -8692.0629    39.223893   -8731.2868   -3510.6804 
  957800    321.80459   -8679.1592    46.043441   -8725.2026   -2357.0904 
  958000    235.80529   -8689.4026    33.738758   -8723.1413   -15310.145 
  958200    251.98079   -8705.5343     36.05313   -8741.5875    23187.145 
  958400    258.00537    -8690.006     36.91512   -8726.9211   -15242.843 
  958600    278.03657   -8684.3342    39.781162   -8724.1153    15751.742 
  958800     299.7126   -8681.9469    42.882543   -8724.8294    -21410.77 
  959000    258.77798   -8697.7213    37.025664   -8734.7469   -7512.0098 
  959200    289.54344   -8687.8398    41.427552   -8729.2674   -1898.1524 
  959400    323.70842   -8686.6698    46.315839   -8732.9856    18270.896 
  959600     289.7347   -8688.0251    41.454917   -8729.4801    6603.6969 
  959800    276.23092   -8692.3967    39.522812   -8731.9195   -11262.514 
  960000    261.94298   -8676.1346    37.478509   -8713.6131    11418.184 
  960200    264.54968   -8691.6099    37.851473   -8729.4613    41187.673 
  960400    301.78031   -8690.6641    43.178389   -8733.8425    10951.061 
  960600    322.92919   -8674.6476    46.204348   -8720.8519   -14606.353 
  960800    278.99495   -8686.5322    39.918286   -8726.4505   -41114.194 
  961000    261.43653   -8695.0561    37.406047   -8732.4621   -10650.546 
  961200    371.92532   -8677.3202    53.214659   -8730.5349   -31058.183 
  961400      274.557   -8690.7116    39.283308   -8729.9949    8870.8676 
  961600    252.59221   -8693.0183    36.140611   -8729.1589   -13519.718 
  961800    304.66591   -8680.2029    43.591258   -8723.7942    63039.649 
  962000    251.96411   -8685.3098    36.050743   -8721.3606   -13470.924 
  962200    250.66186   -8694.4417    35.864419   -8730.3061   -3046.3263 
  962400    339.82939   -8679.8268     48.62241   -8728.4492    30435.747 
  962600    234.96927   -8694.9535     33.61914   -8728.5727    24556.254 
  962800    301.40692   -8691.5252    43.124965   -8734.6501    -15067.22 
  963000    358.52084   -8679.4337    51.296761   -8730.7305    65162.418 
  963200    324.03561   -8681.3326    46.362653   -8727.6952   -12959.689 
  963400    276.24832   -8688.5304    39.525301   -8728.0557   -35179.953 
  963600    275.29314   -8678.2882    39.388635   -8717.6768    -49210.09 
  963800    313.41763   -8679.6645    44.843444    -8724.508   -22453.794 
  964000    266.18973   -8692.6397    38.086129   -8730.7259   -8046.4679 
  964200    323.79121   -8677.8752    46.327684   -8724.2029   -28149.231 
  964400    380.83926   -8673.7424    54.490055   -8728.2324   -38442.511 
  964600     285.4251   -8686.0054    40.838304   -8726.8437    22630.637 
  964800     302.2992   -8690.5357    43.252632   -8733.7883   -18813.326 
  965000    289.70266    -8695.147    41.450333   -8736.5974    12417.003 
  965200    309.33372   -8679.6537    44.259123   -8723.9129   -12398.898 
  965400    253.01558   -8686.2303    36.201186   -8722.4315    20877.229 
  965600     223.8311   -8701.9271    32.025503   -8733.9526    7284.9428 
  965800    294.00334   -8687.2575     42.06567   -8729.3232   -72649.245 
  966000    353.30009   -8680.4045    50.549782   -8730.9543      58739.7 
  966200    307.03282   -8693.2444    43.929913   -8737.1744   -19785.945 
  966400    301.32222   -8684.7961    43.112847    -8727.909   -50706.606 
  966600    308.40336   -8676.8501    44.126008   -8720.9761    18389.756 
  966800     291.9313   -8692.8749    41.769204   -8734.6441    23162.007 
  967000    284.79916   -8690.6069    40.748746   -8731.3556    11453.719 
  967200    306.48712    -8686.171    43.851834   -8730.0229      1075.64 
  967400     287.5034   -8685.6807    41.135665   -8726.8163     -15517.2 
  967600    406.69952   -8675.2829    58.190113    -8733.473    3050.6865 
  967800    274.54832   -8692.5051    39.282067   -8731.7871    10407.423 
  968000    307.26742   -8682.1661    43.963479   -8726.1295    31283.897 
  968200    336.60978   -8682.0311     48.16175   -8730.1928   -13616.605 
  968400    284.91724   -8694.4013     40.76564    -8735.167    19309.226 
  968600    324.50231   -8689.4106    46.429428     -8735.84   -6969.3052 
  968800    337.37128   -8679.0263    48.270706    -8727.297   -23783.673 
  969000    345.35316   -8691.4296    49.412744   -8740.8423    24743.483 
  969200    209.70903   -8710.5177    30.004933   -8740.5227    3597.5479 
  969400    255.74852   -8696.6146    36.592213   -8733.2068   -27959.819 
  969600    336.16656   -8683.3265    48.098336   -8731.4249    10137.907 
  969800     293.4845   -8686.2474    41.991434   -8728.2389    -33797.09 
  970000    227.25496   -8699.3092    32.515385   -8731.8246   -7198.4522 
  970200    269.98534   -8685.0325    38.629201   -8723.6617    25377.411 
  970400    300.93461    -8684.116    43.057388   -8727.1733     8064.491 
  970600    283.40282   -8700.1131    40.548959   -8740.6621    6972.8652 
  970800    272.16938    -8694.246    38.941691   -8733.1877   -3181.7994 
  971000    282.24795    -8684.989    40.383722   -8725.3727    23898.381 
  971200    333.61022   -8681.0344    47.732577    -8728.767    8935.1348 
  971400     241.3235   -8695.6879    34.528297   -8730.2162   -26554.192 
  971600    314.45629   -8684.5691    44.992055   -8729.5612   -3448.3109 
  971800    342.84077   -8678.0266    49.053274   -8727.0799    332.28783 
  972000    280.21465   -8689.1971    40.092799   -8729.2899   -11392.584 
  972200    231.49705   -8702.6124    33.122339   -8735.7348    14768.942 
  972400    287.37144   -8691.0891    41.116784   -8732.2059   -13968.545 
  972600    340.97526   -8682.4289    48.786359   -8731.2152    22978.282 
  972800    307.81275   -8688.8371    44.041504   -8732.8786   -8609.5702 
  973000    262.70602   -8694.0721    37.587684   -8731.6598    17570.838 
  973200    344.33007   -8678.0015    49.266362   -8727.2679    -44536.94 
  973400     315.5681   -8686.0266    45.151131   -8731.1777    30863.084 
  973600    253.03106    -8704.319    36.203401   -8740.5224   -19711.452 
  973800     292.9537   -8694.8512    41.915488   -8736.7666   -2300.9389 
  974000    314.17855   -8682.6513    44.952315   -8727.6036   -4594.7119 
  974200    318.79147   -8689.3333    45.612327   -8734.9457    764.29804 
  974400    275.45054   -8696.2119    39.411155    -8735.623     10932.04 
  974600     252.1407   -8684.7567    36.076009   -8720.8327    -27428.47 
  974800    310.05023   -8684.4476     44.36164   -8728.8092   -19196.671 
  975000    286.79436   -8694.0661    41.034217   -8735.1003    -25473.16 
  975200    264.92754   -8690.5315    37.905537   -8728.4371    39454.695 
  975400    379.79713   -8676.3221    54.340949    -8730.663   -7348.7806 
  975600    319.30193    -8683.713    45.685363   -8729.3983   -6730.6099 
  975800    311.28652   -8689.6581    44.538527   -8734.1966   -49624.727 
  976000    316.46313   -8681.5327    45.279191   -8726.8119    8466.9355 
  976200    305.44876   -8697.2006    43.703268   -8740.9039   -2369.3872 
  976400    358.31637   -8693.1222    51.267506   -8744.3897   -17260.658 
  976600    288.58673   -8685.0699    41.290667   -8726.3606   -2868.5789 
  976800    409.19911   -8664.2611    58.547751   -8722.8089      5650.22 
  977000    298.71561   -8682.1906    42.739896   -8724.9305    35987.812 
  977200    278.83001   -8691.4905    39.894687   -8731.3852    28830.957 
  977400    325.91824   -8684.4907    46.632018   -8731.1228   -34426.415 
  977600    308.25923   -8679.3025    44.105386   -8723.4079    18057.637 
  977800    304.63447   -8688.8537    43.586759   -8732.4404   -6084.7401 
  978000    345.13172   -8688.2512     49.38106   -8737.6323   -46652.114 
  978200    233.28636   -8702.4556    33.378352   -8735.8339    16854.767 
  978400    294.01211   -8688.7887    42.066924   -8730.8557   -23931.341 
  978600    252.47521   -8688.1084    36.123871   -8724.2323    28601.707 
  978800    373.14538   -8671.1463    53.389224   -8724.5356   -12041.202 
  979000    338.05299   -8685.5524    48.368243   -8733.9206   -20695.566 
  979200    321.71727   -8687.4803    46.030948   -8733.5112   -26116.459 
  979400    374.60849   -8672.6251    53.598564   -8726.2237    27228.777 
  979600    276.49888   -8690.2972     39.56115   -8729.8584   -13448.028 
  979800    269.40734   -8687.8381    38.546502   -8726.3846    1224.1829 
  980000     368.1135   -8676.0878    52.669268    -8728.757    3206.6542 
  980200     267.6514   -8692.7329    38.295263   -8731.0282   -16555.687 
  980400    334.31615   -8683.8016    47.833581   -8731.6352   -11715.318 
  980600    226.90887   -8696.8257    32.465868   -8729.2915   -26330.958 
  980800    269.74416   -8693.6691    38.594693   -8732.2638   -25914.933 
  981000    335.86066   -8688.0047    48.054568   -8736.0592    3982.4448 
  981200    297.14235   -8696.4622    42.514795    -8738.977   -20532.719 
  981400    320.23804   -8685.0064    45.819301   -8730.8257   -23133.212 
  981600    297.36914   -8688.6695    42.547244   -8731.2168   -20114.724 
  981800    251.39696   -8696.4333    35.969597   -8732.4029    6085.9975 
  982000    348.74852   -8683.7293    49.898549   -8733.6278    41069.057 
  982200    276.41384   -8687.0654    39.548983   -8726.6144   -3257.7965 
  982400    296.58909   -8690.8064    42.435636    -8733.242   -17012.055 
  982600    287.01185   -8695.6734    41.065335   -8736.7388    23230.125 
  982800     252.0355   -8682.7132    36.060957   -8718.7742   -12672.749 
  983000    318.23905   -8683.1335    45.533287   -8728.6668   -27878.071 
  983200    301.22539    -8693.557    43.098993   -8736.6559    3339.8001 
  983400    321.56592   -8681.6069    46.009293   -8727.6162    6707.9486 
  983600    298.30302   -8689.7724    42.680862   -8732.4533    4087.7552 
  983800    271.35943   -8691.2893    38.825804   -8730.1151   -18231.365 
  984000    322.05222   -8686.2951    46.078871   -8732.3739    2677.0656 
  984200    292.92445   -8689.3755    41.911302   -8731.2868   -16672.184 
  984400    270.09373   -8692.2194    38.644709   -8730.8642   -25628.014 
  984600    362.89654   -8677.8343    51.922831   -8729.7571   -5854.6413 
  984800    263.06255   -8694.1261    37.638695   -8731.7648   -22132.328 
  985000     313.7001   -8687.0466    44.883859   -8731.9304   -19935.132 
  985200    343.66822   -8676.1283    49.171665      -8725.3   -33571.878 
  985400     293.6843    -8690.072    42.020021   -8732.0921    6218.2111 
  985600    298.78827   -8695.2495    42.750292   -8737.9998    19400.917 
  985800    308.07798   -8679.1668    44.079452   -8723.2463    24332.349 
  986000    361.77444   -8676.9511    51.762282   -8728.7134   -56091.492 
  986200    218.90667   -8699.5079    31.320922   -8730.8288    -56108.29 
  986400    251.94184   -8686.8725    36.047557   -8722.9201   -6808.6215 
  986600    315.59762   -8683.3774    45.155355   -8728.5327   -364.90158 
  986800    293.37895   -8695.6865    41.976333   -8737.6628    -33916.99 
  987000    319.37584    -8682.988    45.695939    -8728.684   -13022.756 
  987200    279.39834   -8686.2358    39.976003   -8726.2118    -3028.655 
  987400    263.53499   -8695.3269    37.706292   -8733.0332    483.84466 
  987600      237.805   -8690.9444    34.024873   -8724.9692   -11538.674 
  987800    324.20621    -8684.205    46.387062    -8730.592   -4869.2143 
  988000    294.13097   -8694.2337    42.083931   -8736.3177    12069.064 
  988200    352.39407    -8674.668     50.42015   -8725.0881    8421.2308 
  988400    285.92302    -8687.066    40.909546   -8727.9756   -35778.893 
  988600    323.10451   -8687.3398    46.229432   -8733.5693   -12164.697 
  988800    290.58648   -8665.0533    41.576789   -8706.6301   -17714.381 
  989000    303.55073   -8683.5034      43.4317   -8726.9351     958.5174 
  989200    319.41652   -8694.6079    45.701758   -8740.3097   -28444.354 
  989400    267.41716   -8691.3429    38.261748   -8729.6046   -63806.635 
  989600    334.53938   -8678.9302    47.865521   -8726.7957    6647.1787 
  989800    287.01488   -8694.0342    41.065768      -8735.1   -18230.786 
  990000    298.26779   -8692.2219    42.675822   -8734.8977     282.5041 
  990200    385.70995   -8676.0624    55.186949   -8731.2493     52.21562 
  990400    315.41324   -8692.6369    45.128974   -8737.7658   -8724.8693 
  990600    294.85161   -8690.7825    42.187039   -8732.9696    42684.916 
  990800    310.26393   -8675.0014    44.392217   -8719.3936    8672.6763 
  991000    280.28861   -8685.7307    40.103381   -8725.8341    11690.918 
  991200    274.01882   -8706.2358    39.206306   -8745.4421   -18829.492 
  991400    290.14008   -8690.4056    41.512919   -8731.9185    19022.244 
  991600    333.22412   -8679.8041    47.677335   -8727.4815    8499.1654 
  991800    242.37062   -8695.0353    34.678118   -8729.7134    38506.348 
  992000    270.01232   -8689.3761    38.633061   -8728.0091    -29481.79 
  992200    297.22426   -8685.3868    42.526515   -8727.9133    23982.442 
  992400    297.87561   -8686.0571     42.61971   -8728.6768    23838.356 
  992600    298.00498   -8690.8614     42.63822   -8733.4996   -31207.168 
  992800     355.4453   -8682.7518    50.856717   -8733.6085   -23310.978 
  993000    318.21022   -8680.7613    45.529162   -8726.2904    7253.3478 
  993200    272.09141   -8696.2164    38.930535   -8735.1469   -18772.189 
  993400     310.9079   -8686.1317    44.484355   -8730.6161    25130.086 
  993600    288.31197   -8677.3051    41.251354   -8718.5564   -40478.242 
  993800    315.68714   -8692.1507    45.168163   -8737.3188   -1032.3046 
  994000    302.14442   -8691.6298    43.230486   -8734.8603    5170.6795 
  994200    270.99834   -8679.5651     38.77414   -8718.3392   -36522.395 
  994400    320.75978   -8660.1406    45.893951   -8706.0345    15861.088 
  994600    294.89033   -8684.8772    42.192578   -8727.0698   -22515.249 
  994800     290.9508   -8696.4366    41.628916   -8738.0655   -11748.342 
  995000    346.23985   -8682.0918    49.539611   -8731.6314     24228.29 
  995200    349.99557   -8681.1106    50.076976   -8731.1876   -11408.142 
  995400    227.20063   -8698.5607    32.507613   -8731.0683   -23741.492 
  995600    262.88871   -8694.2698    37.613823   -8731.8836   -16204.634 
  995800    327.26325   -8685.7233     46.82446   -8732.5478   -566.09572 
  996000    290.55083   -8687.3455    41.571688   -8728.9172   -60516.704 
  996200    201.65751   -8700.0038    28.852931   -8728.8568    15657.575 
  996400    308.18999   -8680.9315    44.095479    -8725.027   -15249.407 
  996600     340.2323   -8684.3957    48.680057   -8733.0757    6774.3063 
  996800    269.56705   -8697.2082    38.569352   -8735.7775   -20056.245 
  997000    346.13147   -8674.5971    49.524104   -8724.1212   -33374.736 
  997200    250.70122   -8687.8208    35.870051   -8723.6909    42041.582 
  997400     307.1624   -8690.9889    43.948454   -8734.9373   -11664.032 
  997600    255.96069   -8682.8033    36.622569   -8719.4259   -8745.8426 
  997800    334.32854   -8678.1734    47.835354   -8726.0087   -4987.7384 
  998000    291.11053   -8694.9794    41.651769   -8736.6312   -22365.603 
  998200     282.2764   -8691.8268    40.387791   -8732.2146   -262.41361 
  998400    339.00134   -8682.3467    48.503932   -8730.8506    26084.545 
  998600    295.48961   -8689.3279    42.278323   -8731.6063    -12012.44 
  998800    240.91716   -8701.3762    34.470158   -8735.8463    24340.077 
  999000    319.03782   -8686.6913    45.647574   -8732.3389    9985.4444 
  999200    321.49294   -8680.9996    45.998851   -8726.9985   -26614.376 
  999400    274.20695   -8694.6354    39.233224   -8733.8686    59863.462 
  999600    292.97163   -8692.1742    41.918053   -8734.0922   -947.36685 
  999800    368.32315    -8673.797    52.699265   -8726.4963   -1513.4597 
 1000000     355.2033   -8676.5213    50.822091   -8727.3434   -9546.0282 
Loop time of 4337.29 on 8 procs for 1000000 steps with 49 atoms

Performance: 4.980 ns/day, 4.819 hours/ns, 230.559 timesteps/s
99.1% CPU use with 8 MPI tasks x no OpenMP threads

MPI task timing breakdown:
Section |  min time  |  avg time  |  max time  |%varavg| %total
---------------------------------------------------------------
Pair    | 3828.3     | 3861.9     | 3914.9     |  40.9 | 89.04
Neigh   | 0.061763   | 0.062817   | 0.06369    |   0.3 |  0.00
Comm    | 73.998     | 127.34     | 161.25     | 225.5 |  2.94
Output  | 0.12184    | 0.13288    | 0.19918    |   6.9 |  0.00
Modify  | 342.79     | 343.22     | 343.67     |   1.7 |  7.91
Other   |            | 4.594      |            |       |  0.11

Nlocal:    6.125 ave 7 max 6 min
Histogram: 7 0 0 0 0 0 0 0 0 1
Nghost:    895.875 ave 902 max 890 min
Histogram: 2 0 1 0 0 1 1 2 0 1
Neighs:    1675.25 ave 1909 max 1627 min
Histogram: 7 0 0 0 0 0 0 0 0 1

Total # of neighbors = 13402
Ave neighs/atom = 273.51
Neighbor list builds = 29
Dangerous builds = 0

Please see the log.cite file for references relevant to this simulation

Total wall time: 1:12:30
