ITEM: TIMESTEP
0
ITEM: NUMBER OF ATOMS
50
ITEM: BOX BOUNDS pp pp pp
0.0000000000000000e+00 1.1000000000000000e+01
0.0000000000000000e+00 1.1002000000000001e+01
0.0000000000000000e+00 1.1000000000000000e+01
ITEM: ATOMS id type x y z 
10 1 4.603 4.603 4.603 
11 1 3.085 3.085 3.085 
12 1 3.796 3.796 3.796 
46 1 0.726 0.725 0.725 
47 1 2.26 2.259 2.26 
48 1 1.551 1.55 1.55 
19 1 4.546 4.545 6.226 
20 1 3.013 3.013 7.764 
21 1 3.721 3.721 7.053 
31 1 0.668 0.667 10.103 
32 1 2.187 2.187 8.589 
33 1 1.476 1.475 9.298 
16 1 4.546 6.225 4.546 
17 1 3.013 7.765 3.013 
18 1 3.721 7.053 3.722 
25 1 0.668 10.103 0.668 
26 1 2.188 8.589 2.188 
27 1 1.476 9.298 1.476 
49 2 1.975 9.003 3.46 
50 3 1.975 9.003 4.436 
4 1 4.608 6.169 6.169 
5 1 3.086 7.684 7.684 
6 1 3.799 6.974 6.974 
37 1 0.729 10.046 10.046 
38 1 2.259 8.509 8.508 
39 1 1.552 9.219 9.219 
13 1 6.225 4.546 4.546 
14 1 7.764 3.013 3.013 
15 1 7.053 3.721 3.722 
28 1 10.102 0.667 0.668 
29 1 8.589 2.187 2.188 
30 1 9.298 1.475 1.476 
1 1 6.168 4.608 6.169 
2 1 7.684 3.086 7.684 
3 1 6.974 3.799 6.974 
40 1 10.045 0.728 10.046 
41 1 8.508 2.259 8.508 
42 1 9.218 1.551 9.218 
7 1 6.169 6.169 4.608 
8 1 7.684 7.684 3.086 
9 1 6.974 6.974 3.799 
43 1 10.046 10.047 0.729 
44 1 8.508 8.509 2.259 
45 1 9.219 9.219 1.552 
22 1 6.229 6.229 6.229 
23 1 7.764 7.765 7.765 
24 1 7.055 7.056 7.055 
34 1 10.108 10.108 10.107 
35 1 8.59 8.59 8.59 
36 1 9.301 9.301 9.3 
ITEM: TIMESTEP
10
ITEM: NUMBER OF ATOMS
50
ITEM: BOX BOUNDS pp pp pp
0.0000000000000000e+00 1.1000000000000000e+01
0.0000000000000000e+00 1.1002000000000001e+01
0.0000000000000000e+00 1.1000000000000000e+01
ITEM: ATOMS id type x y z 
10 1 4.60656 4.57968 4.60758 
11 1 3.08112 3.08652 3.08443 
12 1 3.80191 3.79011 3.79561 
46 1 0.716781 0.761054 0.717403 
47 1 2.25836 2.25521 2.26011 
48 1 1.54693 1.55196 1.54274 
19 1 4.54688 4.53748 6.23033 
20 1 3.01129 3.00839 7.76457 
21 1 3.71796 3.72338 7.05784 
31 1 0.668666 0.65683 10.1168 
32 1 2.18185 2.18609 8.59074 
33 1 1.47927 1.46958 9.30142 
16 1 4.5582 6.2147 4.56114 
17 1 3.05029 7.71425 2.98542 
18 1 3.74055 7.0268 3.73037 
25 1 0.691274 10.0741 0.683789 
26 1 2.12996 8.67651 2.22653 
27 1 1.44309 9.33088 1.41554 
49 2 1.97392 8.99153 3.4364 
50 3 1.96191 9.02479 4.4574 
4 1 4.6114 6.16707 6.19172 
5 1 3.08447 7.68914 7.68282 
6 1 3.79703 6.96872 6.98021 
37 1 0.721744 10.0542 10.0091 
38 1 2.2588 8.51007 8.51274 
39 1 1.5457 9.22511 9.21582 
13 1 6.23195 4.54164 4.54616 
14 1 7.76608 3.01329 3.01223 
15 1 7.05162 3.71723 3.72065 
28 1 10.1148 0.655023 0.66838 
29 1 8.58975 2.18533 2.18267 
30 1 9.30295 1.47163 1.47965 
1 1 6.16486 4.60859 6.16856 
2 1 7.68105 3.08803 7.68614 
3 1 6.97677 3.79704 6.96688 
40 1 10.0447 0.727236 10.0454 
41 1 8.50682 2.25878 8.50694 
42 1 9.2193 1.55387 9.21953 
7 1 6.19189 6.16485 4.61129 
8 1 7.68311 7.68885 3.0844 
9 1 6.98078 6.9689 3.79737 
43 1 10.0092 10.0548 0.722709 
44 1 8.51332 8.51021 2.25864 
45 1 9.21631 9.22561 1.54558 
22 1 6.2339 6.23012 6.23601 
23 1 7.76414 7.76709 7.76724 
24 1 7.0592 7.05599 7.05488 
34 1 10.1167 10.107 10.119 
35 1 8.58884 8.59473 8.59236 
36 1 9.30809 9.29704 9.30074 
ITEM: TIMESTEP
20
ITEM: NUMBER OF ATOMS
50
ITEM: BOX BOUNDS pp pp pp
0.0000000000000000e+00 1.1000000000000000e+01
0.0000000000000000e+00 1.1002000000000001e+01
0.0000000000000000e+00 1.1000000000000000e+01
ITEM: ATOMS id type x y z 
10 1 4.60836 4.5819 4.60806 
11 1 3.0824 3.08431 3.08197 
12 1 3.79715 3.78713 3.79746 
46 1 0.713743 0.751913 0.712943 
47 1 2.2611 2.25699 2.26091 
48 1 1.54533 1.55924 1.54495 
19 1 4.54531 4.53735 6.23308 
20 1 3.00765 3.00891 7.76765 
21 1 3.71831 3.71751 7.05819 
31 1 0.670467 0.660778 10.1156 
32 1 2.18332 2.18306 8.5911 
33 1 1.47565 1.47183 9.30308 
16 1 4.57629 6.19549 4.58203 
17 1 3.04951 7.71251 2.97296 
18 1 3.73668 7.03008 3.70818 
25 1 0.689978 10.0738 0.6743 
26 1 2.11284 8.70181 2.25703 
27 1 1.44302 9.33184 1.41472 
49 2 1.97358 8.98629 3.42851 
50 3 1.95723 9.03234 4.45112 
4 1 4.61172 6.16436 6.18972 
5 1 3.08182 7.68749 7.68473 
6 1 3.79913 6.97361 6.98283 
37 1 0.718124 10.0566 10.0178 
38 1 2.26177 8.50737 8.50981 
39 1 1.54738 9.22432 9.2076 
13 1 6.23243 4.53921 4.54467 
14 1 7.76734 3.00863 3.00818 
15 1 7.05751 3.71642 3.71882 
28 1 10.1142 0.656512 0.671586 
29 1 8.59207 2.18405 2.18426 
30 1 9.3017 1.47189 1.47563 
1 1 6.1691 4.60577 6.17023 
2 1 7.68443 3.08527 7.68378 
3 1 6.97403 3.79809 6.97329 
40 1 10.0416 0.731469 10.0422 
41 1 8.50956 2.25875 8.51035 
42 1 9.22008 1.54892 9.22068 
7 1 6.19029 6.16344 4.61165 
8 1 7.68523 7.68731 3.08188 
9 1 6.9835 6.97341 3.79942 
43 1 10.019 10.0588 0.717552 
44 1 8.51158 8.50843 2.26052 
45 1 9.20911 9.2261 1.54641 
22 1 6.23621 6.2299 6.23597 
23 1 7.76696 7.76894 7.76744 
24 1 7.05838 7.05741 7.05905 
34 1 10.1139 10.1061 10.1165 
35 1 8.59213 8.59336 8.59159 
36 1 9.30386 9.30003 9.30408 
ITEM: TIMESTEP
30
ITEM: NUMBER OF ATOMS
50
ITEM: BOX BOUNDS pp pp pp
0.0000000000000000e+00 1.1000000000000000e+01
0.0000000000000000e+00 1.1002000000000001e+01
0.0000000000000000e+00 1.1000000000000000e+01
ITEM: ATOMS id type x y z 
10 1 4.60999 4.5832 4.60993 
11 1 3.08436 3.08536 3.0834 
12 1 3.79882 3.78604 3.8002 
46 1 0.715699 0.752894 0.714987 
47 1 2.25815 2.25514 2.25797 
48 1 1.54122 1.56073 1.54082 
19 1 4.54759 4.5342 6.23668 
20 1 3.00677 3.01027 7.76738 
21 1 3.72075 3.71459 7.05815 
31 1 0.669162 0.664023 10.1168 
32 1 2.18412 2.18285 8.5908 
33 1 1.4752 1.47325 9.30371 
16 1 4.57302 6.19788 4.57748 
17 1 3.0611 7.69922 2.97111 
18 1 3.7445 7.02018 3.69813 
25 1 0.690648 10.0721 0.665635 
26 1 2.09618 8.72615 2.28543 
27 1 1.44118 9.33471 1.41374 
49 2 1.97051 8.98475 3.42574 
50 3 1.95264 9.03969 4.44361 
4 1 4.61222 6.16311 6.18916 
5 1 3.08372 7.68533 7.68343 
6 1 3.8019 6.97164 6.98272 
37 1 0.720971 10.0535 10.0146 
38 1 2.25927 8.51013 8.50965 
39 1 1.54458 9.22672 9.20768 
13 1 6.23633 4.53592 4.54674 
14 1 7.76717 3.00941 3.00845 
15 1 7.05719 3.71563 3.71971 
28 1 10.1137 0.657828 0.669863 
29 1 8.59119 2.18462 2.18169 
30 1 9.3046 1.46931 1.47971 
1 1 6.16783 4.60663 6.17015 
2 1 7.68588 3.08388 7.68578 
3 1 6.97606 3.79593 6.97478 
40 1 10.0401 0.730441 10.0405 
41 1 8.50846 2.25774 8.50945 
42 1 9.22122 1.55206 9.22105 
7 1 6.18908 6.16187 4.61335 
8 1 7.68445 7.68572 3.08341 
9 1 6.9845 6.97158 3.80152 
43 1 10.0168 10.057 0.718745 
44 1 8.51197 8.51186 2.25699 
45 1 9.21043 9.22944 1.54371 
22 1 6.23933 6.2271 6.23937 
23 1 7.76572 7.76948 7.76749 
24 1 7.06071 7.05531 7.05853 
34 1 10.1106 10.1078 10.1162 
35 1 8.59252 8.59258 8.59073 
36 1 9.30187 9.30019 9.30515 
ITEM: TIMESTEP
40
ITEM: NUMBER OF ATOMS
50
ITEM: BOX BOUNDS pp pp pp
0.0000000000000000e+00 1.1000000000000000e+01
0.0000000000000000e+00 1.1002000000000001e+01
0.0000000000000000e+00 1.1000000000000000e+01
ITEM: ATOMS id type x y z 
10 1 4.61045 4.58259 4.61145 
11 1 3.08365 3.08379 3.08404 
12 1 3.79956 3.78631 3.79856 
46 1 0.713845 0.752597 0.712711 
47 1 2.25845 2.25853 2.25822 
48 1 1.543 1.56015 1.54263 
19 1 4.54885 4.53283 6.23679 
20 1 3.00642 3.00839 7.76765 
21 1 3.72015 3.71551 7.05946 
31 1 0.668722 0.664959 10.1164 
32 1 2.18332 2.18278 8.59058 
33 1 1.47598 1.47336 9.30509 
16 1 4.57784 6.19272 4.58056 
17 1 3.05649 7.70381 2.96352 
18 1 3.74453 7.01928 3.69179 
25 1 0.692966 10.0691 0.662809 
26 1 2.09094 8.73315 2.29151 
27 1 1.44231 9.33463 1.41792 
49 2 1.96927 8.98445 3.42734 
50 3 1.9507 9.04276 4.44093 
4 1 4.61339 6.16291 6.18912 
5 1 3.08397 7.68646 7.68437 
6 1 3.8006 6.97052 6.98328 
37 1 0.719363 10.0548 10.0156 
38 1 2.25968 8.50934 8.50724 
39 1 1.54624 9.2258 9.20656 
13 1 6.23612 4.53544 4.54718 
14 1 7.76728 3.00831 3.00691 
15 1 7.05909 3.71542 3.72043 
28 1 10.1145 0.657202 0.672062 
29 1 8.59207 2.18378 2.1835 
30 1 9.3032 1.47073 1.47686 
1 1 6.16985 4.60452 6.17078 
2 1 7.68622 3.08345 7.68461 
3 1 6.97469 3.7971 6.97649 
40 1 10.0409 0.731307 10.0405 
41 1 8.50902 2.25916 8.50986 
42 1 9.22014 1.54996 9.22008 
7 1 6.18957 6.1614 4.61449 
8 1 7.68567 7.6865 3.08378 
9 1 6.98466 6.97084 3.8002 
43 1 10.0181 10.0586 0.717422 
44 1 8.51001 8.51169 2.25787 
45 1 9.20907 9.22786 1.54413 
22 1 6.24066 6.22595 6.23916 
23 1 7.76735 7.76968 7.76736 
24 1 7.05979 7.05579 7.06025 
34 1 10.1093 10.1075 10.1165 
35 1 8.59216 8.5921 8.59152 
36 1 9.30197 9.30122 9.30394 
ITEM: TIMESTEP
50
ITEM: NUMBER OF ATOMS
50
ITEM: BOX BOUNDS pp pp pp
0.0000000000000000e+00 1.1000000000000000e+01
0.0000000000000000e+00 1.1002000000000001e+01
0.0000000000000000e+00 1.1000000000000000e+01
ITEM: ATOMS id type x y z 
10 1 4.61117 4.5838 4.61151 
11 1 3.08456 3.08361 3.08408 
12 1 3.79908 3.78605 3.79973 
46 1 0.713578 0.751938 0.71231 
47 1 2.25797 2.25922 2.25787 
48 1 1.54279 1.56126 1.54217 
19 1 4.54968 4.53246 6.23783 
20 1 3.00625 3.00826 7.76787 
21 1 3.72058 3.71448 7.05961 
31 1 0.668719 0.666239 10.1174 
32 1 2.18377 2.18281 8.59121 
33 1 1.47485 1.47371 9.3045 
16 1 4.57941 6.19087 4.5799 
17 1 3.05778 7.70266 2.96142 
18 1 3.7447 7.01783 3.68492 
25 1 0.694271 10.0669 0.658961 
26 1 2.08766 8.73853 2.3009 
27 1 1.44137 9.33658 1.41963 
49 2 1.96748 8.98469 3.42985 
50 3 1.94841 9.04638 4.43861 
4 1 4.61372 6.16179 6.18776 
5 1 3.08434 7.68523 7.68451 
6 1 3.80167 6.97113 6.98258 
37 1 0.719442 10.0546 10.0161 
38 1 2.25969 8.50963 8.5059 
39 1 1.54617 9.22545 9.20562 
13 1 6.23748 4.53462 4.54806 
14 1 7.7678 3.00817 3.00692 
15 1 7.05902 3.71475 3.72011 
28 1 10.1149 0.656842 0.672619 
29 1 8.59205 2.18382 2.1832 
30 1 9.30355 1.47027 1.47744 
1 1 6.17019 4.60411 6.17217 
2 1 7.6862 3.08337 7.68565 
3 1 6.97558 3.79629 6.9758 
40 1 10.0407 0.731197 10.0396 
41 1 8.50917 2.25914 8.50987 
42 1 9.22033 1.54978 9.22014 
7 1 6.18852 6.16051 4.61464 
8 1 7.68601 7.68555 3.08386 
9 1 6.98468 6.97154 3.8012 
43 1 10.0189 10.0589 0.716606 
44 1 8.50927 8.51216 2.25738 
45 1 9.20842 9.2284 1.54386 
22 1 6.2409 6.22514 6.23974 
23 1 7.76734 7.76975 7.76743 
24 1 7.06041 7.05492 7.06034 
34 1 10.1081 10.1081 10.1168 
35 1 8.59237 8.59204 8.59131 
36 1 9.30104 9.30153 9.30448 
ITEM: TIMESTEP
60
ITEM: NUMBER OF ATOMS
50
ITEM: BOX BOUNDS pp pp pp
0.0000000000000000e+00 1.1000000000000000e+01
0.0000000000000000e+00 1.1002000000000001e+01
0.0000000000000000e+00 1.1000000000000000e+01
ITEM: ATOMS id type x y z 
10 1 4.61276 4.58857 4.615 
11 1 3.08613 3.08301 3.08855 
12 1 3.80389 3.78612 3.79934 
46 1 0.712814 0.752001 0.710535 
47 1 2.25407 2.26405 2.25412 
48 1 1.54135 1.56276 1.54037 
19 1 4.5549 4.52975 6.24274 
20 1 3.00675 3.00671 7.76737 
21 1 3.72422 3.71237 7.06079 
31 1 0.665674 0.672271 10.1206 
32 1 2.18244 2.18291 8.59032 
33 1 1.47591 1.47731 9.30944 
16 1 4.58164 6.18607 4.56771 
17 1 3.06138 7.69999 2.94631 
18 1 3.75297 7.00232 3.65075 
25 1 0.70479 10.0525 0.638825 
26 1 2.0679 8.76859 2.34261 
27 1 1.43849 9.34587 1.43542 
49 2 1.95407 8.99036 3.44819 
50 3 1.93414 9.06861 4.4318 
4 1 4.61719 6.15934 6.18055 
5 1 3.09057 7.68269 7.68243 
6 1 3.80265 6.96411 6.97981 
37 1 0.723699 10.0517 10.018 
38 1 2.26068 8.51256 8.50022 
39 1 1.54146 9.22323 9.19898 
13 1 6.24339 4.5295 4.55293 
14 1 7.76763 3.00771 3.00619 
15 1 7.06154 3.71265 3.72348 
28 1 10.1193 0.653051 0.679662 
29 1 8.59244 2.18256 2.1831 
30 1 9.30544 1.47029 1.47737 
1 1 6.17245 4.60117 6.17359 
2 1 7.68961 3.08186 7.68836 
3 1 6.97579 3.79278 6.97973 
40 1 10.0405 0.730889 10.0352 
41 1 8.51042 2.26056 8.51063 
42 1 9.21975 1.546 9.21833 
7 1 6.18405 6.15825 4.61661 
8 1 7.68707 7.68411 3.08813 
9 1 6.98441 6.96705 3.80045 
43 1 10.0211 10.0579 0.71365 
44 1 8.50603 8.51482 2.25384 
45 1 9.20454 9.23329 1.54227 
22 1 6.24328 6.22021 6.24354 
23 1 7.76837 7.7686 7.76715 
24 1 7.06162 7.05113 7.06106 
34 1 10.1004 10.1136 10.1185 
35 1 8.59087 8.59345 8.5905 
36 1 9.29947 9.29992 9.30692 
ITEM: TIMESTEP
70
ITEM: NUMBER OF ATOMS
50
ITEM: BOX BOUNDS pp pp pp
0.0000000000000000e+00 1.1000000000000000e+01
0.0000000000000000e+00 1.1002000000000001e+01
0.0000000000000000e+00 1.1000000000000000e+01
ITEM: ATOMS id type x y z 
10 1 4.61406 4.59017 4.6117 
11 1 3.08801 3.08258 3.08644 
12 1 3.79988 3.78642 3.80227 
46 1 0.712477 0.750489 0.710099 
47 1 2.25572 2.26434 2.25605 
48 1 1.54059 1.56772 1.53952 
19 1 4.5549 4.53208 6.24354 
20 1 3.00782 3.00613 7.76886 
21 1 3.72274 3.71089 7.05901 
31 1 0.666602 0.672918 10.1228 
32 1 2.18402 2.18353 8.59286 
33 1 1.47239 1.47766 9.30633 
16 1 4.58324 6.18373 4.56394 
17 1 3.06086 7.70088 2.94396 
18 1 3.75393 7.00044 3.64138 
25 1 0.707673 10.0486 0.635827 
26 1 2.06896 8.76791 2.34378 
27 1 1.43799 9.34776 1.44018 
49 2 1.9482 8.99606 3.45469 
50 3 1.92939 9.07553 4.44031 
4 1 4.61746 6.15711 6.17888 
5 1 3.08962 7.68008 7.68182 
6 1 3.80614 6.96798 6.97821 
37 1 0.722752 10.0502 10.0186 
38 1 2.25962 8.5105 8.496 
39 1 1.54656 9.22339 9.1996 
13 1 6.24434 4.52883 4.55496 
14 1 7.76899 3.00579 3.00669 
15 1 7.06195 3.7133 3.72149 
28 1 10.1213 0.65219 0.681246 
29 1 8.59255 2.18396 2.18137 
30 1 9.30597 1.46689 1.48131 
1 1 6.17297 4.59971 6.17576 
2 1 7.68778 3.08123 7.68984 
3 1 6.97927 3.79424 6.97784 
40 1 10.0415 0.727109 10.0343 
41 1 8.51031 2.25802 8.51099 
42 1 9.22243 1.54798 9.21909 
7 1 6.18245 6.15679 4.61489 
8 1 7.68716 7.68211 3.08592 
9 1 6.9847 6.97085 3.80352 
43 1 10.0205 10.0598 0.713505 
44 1 8.50363 8.51608 2.25492 
45 1 9.20467 9.23038 1.54206 
22 1 6.2414 6.22007 6.24142 
23 1 7.76902 7.76625 7.7658 
24 1 7.05939 7.05223 7.06224 
34 1 10.1004 10.1127 10.1198 
35 1 8.59175 8.59084 8.59177 
36 1 9.29598 9.3046 9.30462 
ITEM: TIMESTEP
80
ITEM: NUMBER OF ATOMS
50
ITEM: BOX BOUNDS pp pp pp
0.0000000000000000e+00 1.1000000000000000e+01
0.0000000000000000e+00 1.1002000000000001e+01
0.0000000000000000e+00 1.1000000000000000e+01
ITEM: ATOMS id type x y z 
10 1 4.61362 4.59046 4.61237 
11 1 3.08739 3.08222 3.08794 
12 1 3.80142 3.78768 3.8001 
46 1 0.712462 0.751755 0.709609 
47 1 2.25479 2.2653 2.25493 
48 1 1.54104 1.56606 1.53993 
19 1 4.55441 4.53207 6.24265 
20 1 3.00814 3.00572 7.76749 
21 1 3.72376 3.7121 7.06079 
31 1 0.666373 0.672671 10.1229 
32 1 2.18337 2.18376 8.59253 
33 1 1.47334 1.47775 9.30762 
16 1 4.58318 6.18305 4.56092 
17 1 3.06099 7.70087 2.94244 
18 1 3.75527 6.99865 3.63861 
25 1 0.70874 10.0474 0.63422 
26 1 2.06837 8.76899 2.34591 
27 1 1.43778 9.34837 1.44145 
49 2 1.94584 8.99834 3.45703 
50 3 1.92707 9.07878 4.44376 
4 1 4.6173 6.15682 6.17871 
5 1 3.09029 7.68012 7.68112 
6 1 3.80598 6.96703 6.97699 
37 1 0.723642 10.0493 10.0189 
38 1 2.25882 8.5109 8.4954 
39 1 1.54739 9.2232 9.20035 
13 1 6.24462 4.52887 4.55477 
14 1 7.76851 3.00684 3.00595 
15 1 7.06238 3.71209 3.72381 
28 1 10.122 0.650581 0.683587 
29 1 8.59218 2.18298 2.18161 
30 1 9.30743 1.4677 1.48137 
1 1 6.17363 4.59927 6.17443 
2 1 7.68915 3.08138 7.68964 
3 1 6.97762 3.79307 6.97933 
40 1 10.0421 0.727068 10.0334 
41 1 8.51031 2.25844 8.51101 
42 1 9.22258 1.54702 9.2189 
7 1 6.18245 6.15719 4.61473 
8 1 7.68748 7.68297 3.08733 
9 1 6.98337 6.96926 3.80128 
43 1 10.0202 10.0594 0.71389 
44 1 8.50332 8.51651 2.25444 
45 1 9.20505 9.23023 1.54193 
22 1 6.24015 6.221 6.24202 
23 1 7.76844 7.76653 7.76678 
24 1 7.06096 7.0512 7.06108 
34 1 10.0997 10.1135 10.1192 
35 1 8.59092 8.5919 8.59104 
36 1 9.2966 9.3026 9.30574 
ITEM: TIMESTEP
90
ITEM: NUMBER OF ATOMS
50
ITEM: BOX BOUNDS pp pp pp
0.0000000000000000e+00 1.1000000000000000e+01
0.0000000000000000e+00 1.1002000000000001e+01
0.0000000000000000e+00 1.1000000000000000e+01
ITEM: ATOMS id type x y z 
10 1 4.61052 4.59929 4.60511 
11 1 3.08587 3.08289 3.08706 
12 1 3.79946 3.79133 3.79678 
46 1 0.712249 0.755849 0.706942 
47 1 2.25269 2.27169 2.25266 
48 1 1.54351 1.56494 1.54035 
19 1 4.55294 4.53861 6.24059 
20 1 3.01197 3.00338 7.76492 
21 1 3.72955 3.71775 7.06905 
31 1 0.664344 0.674941 10.1245 
32 1 2.18253 2.18609 8.59255 
33 1 1.47446 1.48029 9.309 
16 1 4.59011 6.17185 4.52478 
17 1 3.06248 7.70125 2.92325 
18 1 3.76567 6.98234 3.5929 
25 1 0.722825 10.0284 0.617921 
26 1 2.05799 8.78612 2.3776 
27 1 1.43798 9.3528 1.45974 
49 2 1.91451 9.02942 3.49201 
50 3 1.89365 9.12453 4.48652 
4 1 4.62257 6.15084 6.17576 
5 1 3.0912 7.67915 7.66933 
6 1 3.80875 6.96428 6.96942 
37 1 0.735592 10.0379 10.0302 
38 1 2.26123 8.50985 8.48603 
39 1 1.55281 9.21707 9.19892 
13 1 6.25626 4.52255 4.56803 
14 1 7.76945 3.0054 3.00464 
15 1 7.06709 3.70828 3.72865 
28 1 10.134 0.636986 0.706825 
29 1 8.59368 2.18203 2.18084 
30 1 9.31379 1.46023 1.49256 
1 1 6.17572 4.59369 6.16979 
2 1 7.69074 3.08091 7.69388 
3 1 6.9794 3.78903 6.98063 
40 1 10.0503 0.713683 10.0241 
41 1 8.51314 2.25607 8.51469 
42 1 9.22807 1.54105 9.21547 
7 1 6.17406 6.15697 4.60697 
8 1 7.68626 7.68505 3.08795 
9 1 6.97972 6.97059 3.79835 
43 1 10.0225 10.0585 0.713843 
44 1 8.50003 8.51769 2.25385 
45 1 9.20094 9.22917 1.53888 
22 1 6.22646 6.22549 6.23983 
23 1 7.76549 7.76141 7.76763 
24 1 7.06557 7.04532 7.05582 
34 1 10.0943 10.1188 10.1177 
35 1 8.58611 8.59137 8.59197 
36 1 9.29127 9.30391 9.3052 
ITEM: TIMESTEP
100
ITEM: NUMBER OF ATOMS
50
ITEM: BOX BOUNDS pp pp pp
0.0000000000000000e+00 1.1000000000000000e+01
0.0000000000000000e+00 1.1002000000000001e+01
0.0000000000000000e+00 1.1000000000000000e+01
ITEM: ATOMS id type x y z 
10 1 4.60998 4.6001 4.6045 
11 1 3.08584 3.08329 3.08695 
12 1 3.79936 3.79172 3.79661 
46 1 0.712812 0.754654 0.707351 
47 1 2.25337 2.26996 2.25318 
48 1 1.54182 1.56745 1.53882 
19 1 4.55286 4.53976 6.24191 
20 1 3.01272 3.0046 7.76662 
21 1 3.72847 3.71665 7.06639 
31 1 0.664211 0.674983 10.1244 
32 1 2.18286 2.18596 8.59281 
33 1 1.47388 1.47995 9.30852 
16 1 4.59054 6.17103 4.52293 
17 1 3.06237 7.70139 2.92287 
18 1 3.76606 6.98203 3.59152 
25 1 0.7238 10.0273 0.618051 
26 1 2.0572 8.78727 2.38031 
27 1 1.43827 9.35237 1.4598 
49 2 1.91362 9.03065 3.49386 
50 3 1.89184 9.12661 4.48708 
4 1 4.62329 6.15054 6.17632 
5 1 3.09103 7.67938 7.6685 
6 1 3.80927 6.96382 6.96944 
37 1 0.736023 10.0374 10.0305 
38 1 2.26077 8.50986 8.48565 
39 1 1.55341 9.21718 9.19973 
13 1 6.25693 4.52156 4.5688 
14 1 7.76915 3.0053 3.00464 
15 1 7.06806 3.70848 3.72936 
28 1 10.1347 0.636259 0.707922 
29 1 8.59377 2.18159 2.18117 
30 1 9.31427 1.46002 1.49275 
1 1 6.17584 4.59291 6.16919 
2 1 7.6902 3.08082 7.69458 
3 1 6.98044 3.78903 6.97966 
40 1 10.0511 0.713218 10.0232 
41 1 8.51384 2.25593 8.51498 
42 1 9.22804 1.54003 9.21526 
7 1 6.17365 6.15715 4.60651 
8 1 7.68638 7.68485 3.088 
9 1 6.97869 6.97094 3.79793 
43 1 10.022 10.0582 0.713826 
44 1 8.49971 8.5178 2.25324 
45 1 9.20187 9.22954 1.53947 
22 1 6.22721 6.2258 6.23921 
23 1 7.76681 7.76047 7.76665 
24 1 7.06236 7.04642 7.05697 
34 1 10.0944 10.1192 10.117 
35 1 8.58618 8.59104 8.59228 
36 1 9.29061 9.30455 9.30492 
ITEM: TIMESTEP
110
ITEM: NUMBER OF ATOMS
50
ITEM: BOX BOUNDS pp pp pp
0.0000000000000000e+00 1.1000000000000000e+01
0.0000000000000000e+00 1.1002000000000001e+01
0.0000000000000000e+00 1.1000000000000000e+01
ITEM: ATOMS id type x y z 
10 1 4.60951 4.60138 4.60337 
11 1 3.08614 3.08355 3.08633 
12 1 3.79853 3.79226 3.79688 
46 1 0.712735 0.754092 0.707245 
47 1 2.25345 2.2691 2.25298 
48 1 1.54084 1.56878 1.53814 
19 1 4.55269 4.54162 6.24329 
20 1 3.01376 3.00598 7.7687 
21 1 3.72663 3.71564 7.06297 
31 1 0.66467 0.674188 10.1239 
32 1 2.18386 2.18531 8.59308 
33 1 1.47272 1.4809 9.30823 
16 1 4.59104 6.16968 4.51945 
17 1 3.06206 7.70187 2.9223 
18 1 3.76635 6.98177 3.58852 
25 1 0.725322 10.0254 0.617979 
26 1 2.05588 8.78908 2.38462 
27 1 1.43895 9.3515 1.46048 
49 2 1.9119 9.03299 3.49703 
50 3 1.88853 9.13047 4.48856 
4 1 4.62471 6.14952 6.17794 
5 1 3.0908 7.67969 7.66717 
6 1 3.8097 6.96341 6.96954 
37 1 0.73677 10.0366 10.0313 
38 1 2.26027 8.5099 8.48487 
39 1 1.55462 9.21687 9.20079 
13 1 6.25805 4.52022 4.57045 
14 1 7.76956 3.00534 3.00445 
15 1 7.06875 3.70772 3.73058 
28 1 10.1361 0.635097 0.709732 
29 1 8.59402 2.18141 2.18094 
30 1 9.31505 1.45844 1.49458 
1 1 6.17633 4.59118 6.16744 
2 1 7.68978 3.08045 7.69522 
3 1 6.98172 3.78918 6.97919 
40 1 10.0521 0.712226 10.0217 
41 1 8.51391 2.25582 8.51507 
42 1 9.22871 1.53917 9.2145 
7 1 6.17225 6.15798 4.60525 
8 1 7.6854 7.68529 3.08708 
9 1 6.97949 6.97072 3.79813 
43 1 10.0218 10.0582 0.713629 
44 1 8.4993 8.51783 2.25259 
45 1 9.20297 9.23007 1.54045 
22 1 6.22761 6.22656 6.23816 
23 1 7.76834 7.75928 7.76555 
24 1 7.05792 7.0483 7.05876 
34 1 10.0942 10.1196 10.1162 
35 1 8.58598 8.59054 8.59233 
36 1 9.29024 9.30479 9.30442 
ITEM: TIMESTEP
120
ITEM: NUMBER OF ATOMS
50
ITEM: BOX BOUNDS pp pp pp
0.0000000000000000e+00 1.1000000000000000e+01
0.0000000000000000e+00 1.1002000000000001e+01
0.0000000000000000e+00 1.1000000000000000e+01
ITEM: ATOMS id type x y z 
10 1 4.60838 4.60315 4.6027 
11 1 3.0861 3.08313 3.08637 
12 1 3.79789 3.79401 3.79521 
46 1 0.712491 0.753961 0.707025 
47 1 2.25329 2.26927 2.25259 
48 1 1.54055 1.56886 1.53769 
19 1 4.55156 4.54321 6.243 
20 1 3.01433 3.00601 7.76885 
21 1 3.7255 3.71736 7.06278 
31 1 0.663851 0.674346 10.123 
32 1 2.1839 2.18615 8.59346 
33 1 1.47411 1.47985 9.30804 
16 1 4.59242 6.16773 4.51419 
17 1 3.06126 7.70304 2.92137 
18 1 3.76724 6.98077 3.58463 
25 1 0.727223 10.0227 0.617714 
26 1 2.05407 8.79148 2.39009 
27 1 1.43995 9.35034 1.46205 
49 2 1.90918 9.03659 3.50144 
50 3 1.88359 9.13629 4.49143 
4 1 4.62696 6.14785 6.18029 
5 1 3.09048 7.68021 7.66517 
6 1 3.81034 6.96255 6.97008 
37 1 0.738326 10.0354 10.033 
38 1 2.26044 8.5097 8.48382 
39 1 1.55544 9.21636 9.20144 
13 1 6.25962 4.51817 4.5731 
14 1 7.77037 3.00539 3.00477 
15 1 7.0695 3.70632 3.73137 
28 1 10.138 0.632598 0.713329 
29 1 8.59457 2.18042 2.1817 
30 1 9.31582 1.45766 1.49553 
1 1 6.17804 4.5893 6.16488 
2 1 7.69025 3.08074 7.69608 
3 1 6.98183 3.78767 6.97856 
40 1 10.0537 0.710418 10.0193 
41 1 8.51439 2.25538 8.51516 
42 1 9.22912 1.53815 9.21355 
7 1 6.17109 6.15894 4.60456 
8 1 7.6857 7.68526 3.08666 
9 1 6.97766 6.9718 3.79656 
43 1 10.0224 10.0582 0.713735 
44 1 8.4995 8.51835 2.25216 
45 1 9.20315 9.23029 1.54065 
22 1 6.22602 6.22812 6.2374 
23 1 7.76817 7.75819 7.76551 
24 1 7.05493 7.0506 7.05892 
34 1 10.0931 10.1205 10.1154 
35 1 8.58551 8.58996 8.59238 
36 1 9.29077 9.30435 9.30328 
ITEM: TIMESTEP
130
ITEM: NUMBER OF ATOMS
50
ITEM: BOX BOUNDS pp pp pp
0.0000000000000000e+00 1.1000000000000000e+01
0.0000000000000000e+00 1.1002000000000001e+01
0.0000000000000000e+00 1.1000000000000000e+01
ITEM: ATOMS id type x y z 
10 1 4.60687 4.60482 4.60154 
11 1 3.086 3.08301 3.08572 
12 1 3.79688 3.79511 3.79423 
46 1 0.712099 0.754052 0.70673 
47 1 2.25273 2.26934 2.25219 
48 1 1.54077 1.56853 1.53728 
19 1 4.55018 4.54494 6.24275 
20 1 3.01444 3.00664 7.76877 
21 1 3.72493 3.71842 7.06298 
31 1 0.663849 0.673926 10.1222 
32 1 2.18449 2.18585 8.59337 
33 1 1.47456 1.48045 9.30869 
16 1 4.59414 6.16618 4.50885 
17 1 3.06074 7.70394 2.92095 
18 1 3.76803 6.9799 3.58088 
25 1 0.729066 10.0202 0.617444 
26 1 2.05248 8.79352 2.39453 
27 1 1.44084 9.34937 1.46392 
49 2 1.90645 9.04012 3.50538 
50 3 1.87889 9.14189 4.49466 
4 1 4.62911 6.14639 6.18302 
5 1 3.09054 7.68089 7.6638 
6 1 3.81014 6.96142 6.97047 
37 1 0.740002 10.034 10.0347 
38 1 2.26045 8.50975 8.48322 
39 1 1.55632 9.21574 9.20128 
13 1 6.26111 4.51601 4.57579 
14 1 7.77081 3.00471 3.00476 
15 1 7.07109 3.70571 3.73265 
28 1 10.14 0.63071 0.71644 
29 1 8.59499 2.17984 2.182 
30 1 9.31696 1.45629 1.49738 
1 1 6.1792 4.58709 6.16244 
2 1 7.69007 3.08084 7.69701 
3 1 6.98281 3.78652 6.97711 
40 1 10.0552 0.708607 10.0166 
41 1 8.51471 2.25523 8.51487 
42 1 9.22955 1.53715 9.21308 
7 1 6.16947 6.16023 4.60346 
8 1 7.68561 7.68522 3.08593 
9 1 6.97613 6.97281 3.79556 
43 1 10.0228 10.0581 0.713778 
44 1 8.49926 8.51851 2.2523 
45 1 9.20385 9.23048 1.5406 
22 1 6.22378 6.23052 6.23659 
23 1 7.76708 7.75861 7.76577 
24 1 7.05388 7.05086 7.05879 
34 1 10.093 10.1209 10.1143 
35 1 8.58607 8.58901 8.59195 
36 1 9.28971 9.30474 9.3033 
ITEM: TIMESTEP
140
ITEM: NUMBER OF ATOMS
50
ITEM: BOX BOUNDS pp pp pp
0.0000000000000000e+00 1.1000000000000000e+01
0.0000000000000000e+00 1.1002000000000001e+01
0.0000000000000000e+00 1.1000000000000000e+01
ITEM: ATOMS id type x y z 
10 1 4.59117 4.61823 4.59231 
11 1 3.0827 3.0836 3.07857 
12 1 3.78886 3.80131 3.78625 
46 1 0.712297 0.753192 0.704248 
47 1 2.25103 2.26884 2.24991 
48 1 1.53959 1.57008 1.53171 
19 1 4.5377 4.55866 6.23863 
20 1 3.01489 3.01194 7.76965 
21 1 3.71887 3.72919 7.06333 
31 1 0.66297 0.67233 10.117 
32 1 2.19072 2.18718 8.59675 
33 1 1.47772 1.47904 9.30597 
16 1 4.60888 6.15189 4.45571 
17 1 3.05395 7.71423 2.91589 
18 1 3.77428 6.97343 3.54305 
25 1 0.745279 9.99591 0.613393 
26 1 2.03979 8.81081 2.43859 
27 1 1.4473 9.34212 1.48017 
49 2 1.87981 9.0743 3.54251 
50 3 1.83366 9.19584 4.52674 
4 1 4.64559 6.12993 6.21244 
5 1 3.08612 7.68432 7.65243 
6 1 3.81504 6.95802 6.97678 
37 1 0.755412 10.0211 10.0493 
38 1 2.26122 8.50962 8.47523 
39 1 1.56342 9.21213 9.20344 
13 1 6.27783 4.49796 4.59873 
14 1 7.77759 3.00024 3.00579 
15 1 7.08231 3.69459 3.74462 
28 1 10.1564 0.612287 0.746246 
29 1 8.59983 2.17348 2.18615 
30 1 9.32731 1.44437 1.513 
1 1 6.19118 4.5662 6.13764 
2 1 7.69185 3.0794 7.70182 
3 1 6.98848 3.77674 6.9704 
40 1 10.0692 0.690986 9.99331 
41 1 8.51734 2.25235 8.51646 
42 1 9.23627 1.52858 9.2034 
7 1 6.15445 6.17481 4.59448 
8 1 7.68214 7.68775 3.077 
9 1 6.96906 6.98021 3.78786 
43 1 10.0283 10.0549 0.714374 
44 1 8.50055 8.52019 2.25172 
45 1 9.20525 9.23294 1.54124 
22 1 6.20731 6.25069 6.22762 
23 1 7.75771 7.75935 7.76745 
24 1 7.04141 7.0571 7.0578 
34 1 10.0883 10.127 10.1059 
35 1 8.5862 8.58357 8.59009 
36 1 9.28736 9.30402 9.29889 
ITEM: TIMESTEP
150
ITEM: NUMBER OF ATOMS
50
ITEM: BOX BOUNDS pp pp pp
0.0000000000000000e+00 1.1000000000000000e+01
0.0000000000000000e+00 1.1002000000000001e+01
0.0000000000000000e+00 1.1000000000000000e+01
ITEM: ATOMS id type x y z 
10 1 4.59067 4.61837 4.59258 
11 1 3.08219 3.08373 3.07809 
12 1 3.78766 3.80141 3.78637 
46 1 0.712773 0.753929 0.703177 
47 1 2.25118 2.2695 2.24842 
48 1 1.53935 1.56862 1.53267 
19 1 4.53693 4.55905 6.23716 
20 1 3.01471 3.01326 7.77085 
21 1 3.71853 3.72809 7.06183 
31 1 0.663325 0.672292 10.1166 
32 1 2.19071 2.18692 8.59649 
33 1 1.47763 1.47938 9.30625 
16 1 4.60986 6.15049 4.45248 
17 1 3.05413 7.71424 2.91635 
18 1 3.77517 6.97294 3.54162 
25 1 0.745738 9.99446 0.613746 
26 1 2.03946 8.81153 2.44022 
27 1 1.44685 9.34234 1.48137 
49 2 1.8779 9.0765 3.54419 
50 3 1.83094 9.19918 4.52912 
4 1 4.64533 6.13016 6.21394 
5 1 3.08586 7.68472 7.65257 
6 1 3.81567 6.95716 6.97912 
37 1 0.756049 10.0213 10.0488 
38 1 2.26107 8.5106 8.47432 
39 1 1.56307 9.21133 9.20444 
13 1 6.27804 4.49819 4.5983 
14 1 7.77803 2.99949 3.00706 
15 1 7.0826 3.69433 3.74529 
28 1 10.1573 0.612039 0.747329 
29 1 8.60062 2.17307 2.18663 
30 1 9.32794 1.44336 1.51407 
1 1 6.19181 4.56576 6.13712 
2 1 7.69203 3.07922 7.70194 
3 1 6.98909 3.77564 6.96914 
40 1 10.0695 0.69039 9.99279 
41 1 8.51732 2.25212 8.51751 
42 1 9.2381 1.52717 9.2014 
7 1 6.15436 6.17585 4.59507 
8 1 7.68262 7.68815 3.07735 
9 1 6.96782 6.98106 3.78679 
43 1 10.0285 10.055 0.714276 
44 1 8.49987 8.52076 2.25141 
45 1 9.20638 9.23156 1.54058 
22 1 6.20784 6.24913 6.22675 
23 1 7.75773 7.75822 7.76853 
24 1 7.04083 7.06031 7.05542 
34 1 10.0882 10.1266 10.1057 
35 1 8.58532 8.58362 8.59051 
36 1 9.28744 9.30439 9.29814 
ITEM: TIMESTEP
160
ITEM: NUMBER OF ATOMS
50
ITEM: BOX BOUNDS pp pp pp
0.0000000000000000e+00 1.1000000000000000e+01
0.0000000000000000e+00 1.1002000000000001e+01
0.0000000000000000e+00 1.1000000000000000e+01
ITEM: ATOMS id type x y z 
10 1 4.59015 4.61819 4.59265 
11 1 3.0818 3.08386 3.07781 
12 1 3.78723 3.80137 3.78631 
46 1 0.712918 0.753963 0.702995 
47 1 2.25122 2.2696 2.2479 
48 1 1.5393 1.56831 1.53282 
19 1 4.53645 4.55918 6.2364 
20 1 3.01474 3.01363 7.77104 
21 1 3.71826 3.72816 7.0615 
31 1 0.663627 0.672219 10.1164 
32 1 2.19081 2.18698 8.59633 
33 1 1.47769 1.47968 9.30629 
16 1 4.61029 6.15005 4.45096 
17 1 3.05401 7.71452 2.91646 
18 1 3.7756 6.97267 3.54074 
25 1 0.745807 9.99377 0.61378 
26 1 2.0393 8.8119 2.44127 
27 1 1.44669 9.34236 1.4821 
49 2 1.87685 9.07772 3.54518 
50 3 1.8294 9.20106 4.53033 
4 1 4.64565 6.12978 6.21508 
5 1 3.08593 7.68472 7.65302 
6 1 3.8158 6.95707 6.97967 
37 1 0.756357 10.0211 10.0491 
38 1 2.26104 8.51074 8.47403 
39 1 1.56298 9.21132 9.20438 
13 1 6.27839 4.4981 4.59834 
14 1 7.77848 2.99898 3.00775 
15 1 7.08265 3.69411 3.74536 
28 1 10.1577 0.611658 0.748018 
29 1 8.60088 2.17274 2.18715 
30 1 9.32839 1.44321 1.51457 
1 1 6.19226 4.56541 6.13664 
2 1 7.69218 3.07896 7.7019 
3 1 6.98941 3.77519 6.96877 
40 1 10.0701 0.689736 9.99158 
41 1 8.51789 2.25173 8.51678 
42 1 9.23765 1.52728 9.20222 
7 1 6.15412 6.1765 4.59504 
8 1 7.68247 7.68852 3.07717 
9 1 6.96788 6.98146 3.78681 
43 1 10.0288 10.055 0.714228 
44 1 8.49967 8.52095 2.25121 
45 1 9.20689 9.23098 1.54021 
22 1 6.20776 6.24924 6.22612 
23 1 7.7574 7.75836 7.76826 
24 1 7.04069 7.06051 7.05511 
34 1 10.0883 10.1265 10.1054 
35 1 8.58499 8.58366 8.59058 
36 1 9.28722 9.30434 9.29818 
ITEM: TIMESTEP
170
ITEM: NUMBER OF ATOMS
50
ITEM: BOX BOUNDS pp pp pp
0.0000000000000000e+00 1.1000000000000000e+01
0.0000000000000000e+00 1.1002000000000001e+01
0.0000000000000000e+00 1.1000000000000000e+01
ITEM: ATOMS id type x y z 
10 1 4.57336 4.6186 4.59059 
11 1 3.06963 3.09005 3.06729 
12 1 3.77545 3.79529 3.78749 
46 1 0.714242 0.751516 0.700628 
47 1 2.25111 2.27018 2.23897 
48 1 1.54037 1.56525 1.52692 
19 1 4.52144 4.56371 6.21463 
20 1 3.01405 3.02296 7.7726 
21 1 3.7122 3.73379 7.05672 
31 1 0.668139 0.673353 10.1114 
32 1 2.19444 2.19268 8.59713 
33 1 1.47786 1.48046 9.2993 
16 1 4.6231 6.13668 4.40679 
17 1 3.05174 7.72249 2.92094 
18 1 3.78842 6.96411 3.51493 
25 1 0.749558 9.97142 0.616314 
26 1 2.03284 8.82471 2.47419 
27 1 1.44301 9.3418 1.50547 
49 2 1.84539 9.11464 3.57597 
50 3 1.78148 9.25915 4.56525 
4 1 4.65633 6.11738 6.24866 
5 1 3.09101 7.68351 7.66584 
6 1 3.818 6.95201 6.99243 
37 1 0.763227 10.0124 10.0565 
38 1 2.25962 8.51491 8.4673 
39 1 1.56141 9.21083 9.20172 