LAMMPS (3 Mar 2020)
Reading data file ...
  orthogonal box = (0 0 0) to (11 11.002 11)
  2 by 2 by 2 MPI processor grid
  reading atoms ...
  50 atoms
  read_data CPU = 0.0101742 secs
WARNING: Using 'neigh_modify every 1 delay 0 check yes' setting during minimization (../min.cpp:190)
WARNING: Total cutoff < 2*bond cutoff. May need to use an increased neighbor list skin. (../pair_reaxc.cpp:413)
Neighbor list info ...
  update every 1 steps, delay 0 steps, check yes
  max neighbors/atom: 2000, page size: 100000
  master list distance cutoff = 9.5
  ghost atom cutoff = 9.5
  binsize = 4.75, bins = 3 3 3
  2 neighbor lists, perpetual/occasional/extra = 2 0 0
  (1) pair reax/c, perpetual
      attributes: half, newton off, ghost
      pair build: half/bin/newtoff/ghost
      stencil: half/ghost/bin/3d/newtoff
      bin: standard
  (2) fix qeq/reax, perpetual, copy from (1)
      attributes: half, newton off, ghost
      pair build: copy
      stencil: none
      bin: none
Setting up cg style minimization ...
  Unit style    : real
  Current step  : 0
Per MPI rank memory allocation (min/avg/max) = 18.89 | 19.12 | 19.39 Mbytes
Step Temp E_pair E_mol TotEng Press 
       0            0   -8709.2721            0   -8709.2721    13497.961 
     504            0   -8818.6403            0   -8818.6403    36021.864 
Loop time of 10.3484 on 8 procs for 504 steps with 50 atoms

99.4% CPU use with 8 MPI tasks x no OpenMP threads

Minimization stats:
  Stopping criterion = energy tolerance
  Energy initial, next-to-last, final = 
        -8709.27213785     -8818.64021398     -8818.64028171
  Force two-norm initial, final = 483.02 35.6474
  Force max component initial, final = 261.817 11.1486
  Final line search alpha, max atom move = 0.000560078 0.00624408
  Iterations, force evaluations = 504 3856

MPI task timing breakdown:
Section |  min time  |  avg time  |  max time  |%varavg| %total
---------------------------------------------------------------
Pair    | 7.7925     | 7.8927     | 8.0193     |   2.5 | 76.27
Neigh   | 0.00067714 | 0.0006971  | 0.00071494 |   0.0 |  0.01
Comm    | 0.074496   | 0.20087    | 0.30159    |  15.8 |  1.94
Output  | 0.00092169 | 0.0012003  | 0.0018108  |   0.8 |  0.01
Modify  | 2.2313     | 2.2319     | 2.2328     |   0.0 | 21.57
Other   |            | 0.02108    |            |       |  0.20

Nlocal:    6.25 ave 8 max 6 min
Histogram: 7 0 0 0 0 0 0 0 0 1
Nghost:    608.5 ave 625 max 588 min
Histogram: 1 0 0 2 0 1 1 1 1 1
Neighs:    827.625 ave 1032 max 793 min
Histogram: 7 0 0 0 0 0 0 0 0 1

Total # of neighbors = 6621
Ave neighs/atom = 132.42
Neighbor list builds = 1
Dangerous builds = 0
WARNING: Using 'neigh_modify every 1 delay 0 check yes' setting during minimization (../min.cpp:190)
WARNING: Total cutoff < 2*bond cutoff. May need to use an increased neighbor list skin. (../pair_reaxc.cpp:413)
Setting up cg style minimization ...
  Unit style    : real
  Current step  : 504
Per MPI rank memory allocation (min/avg/max) = 18.89 | 19.12 | 19.39 Mbytes
Step Temp E_pair E_mol TotEng Press 
     504            0   -8818.6403            0   -8818.6403    36021.864 
     505            0   -8818.6403            0   -8818.6403    36021.134 
Loop time of 0.0215389 on 8 procs for 1 steps with 50 atoms

99.3% CPU use with 8 MPI tasks x no OpenMP threads

Minimization stats:
  Stopping criterion = energy tolerance
  Energy initial, next-to-last, final = 
        -8818.64028171     -8818.64028171     -8818.64032498
  Force two-norm initial, final = 35.6474 35.6374
  Force max component initial, final = 11.1486 11.1418
  Final line search alpha, max atom move = 0.000560609 0.00624622
  Iterations, force evaluations = 1 7

MPI task timing breakdown:
Section |  min time  |  avg time  |  max time  |%varavg| %total
---------------------------------------------------------------
Pair    | 0.016262   | 0.016556   | 0.016879   |   0.1 | 76.87
Neigh   | 0          | 0          | 0          |   0.0 |  0.00
Comm    | 0.00013607 | 0.00048425 | 0.00080463 |   0.0 |  2.25
Output  | 0          | 0          | 0          |   0.0 |  0.00
Modify  | 0.0043709  | 0.0043735  | 0.0043754  |   0.0 | 20.31
Other   |            | 0.0001249  |            |       |  0.58

Nlocal:    6.25 ave 8 max 6 min
Histogram: 7 0 0 0 0 0 0 0 0 1
Nghost:    608.5 ave 628 max 588 min
Histogram: 1 0 0 2 1 0 1 2 0 1
Neighs:    827.625 ave 1030 max 792 min
Histogram: 7 0 0 0 0 0 0 0 0 1

Total # of neighbors = 6621
Ave neighs/atom = 132.42
Neighbor list builds = 0
Dangerous builds = 0
WARNING: Using 'neigh_modify every 1 delay 0 check yes' setting during minimization (../min.cpp:190)
WARNING: Total cutoff < 2*bond cutoff. May need to use an increased neighbor list skin. (../pair_reaxc.cpp:413)
Setting up cg style minimization ...
  Unit style    : real
  Current step  : 505
WARNING: Energy due to 3 extra global DOFs will be included in minimizer energies
Per MPI rank memory allocation (min/avg/max) = 18.89 | 19.12 | 19.39 Mbytes
Step Temp E_pair E_mol TotEng Press Volume 
     505            0   -8818.6403            0   -8818.6403    36021.134     1331.242 
    1535            0   -8837.0647            0   -8837.0647    852.00067    1351.2478 
Loop time of 3.6359 on 8 procs for 1030 steps with 50 atoms

98.6% CPU use with 8 MPI tasks x no OpenMP threads

Minimization stats:
  Stopping criterion = energy tolerance
  Energy initial, next-to-last, final = 
        -8818.64032498     -8837.06467111     -8837.06467479
  Force two-norm initial, final = 1212.29 32.8747
  Force max component initial, final = 721.74 19.1045
  Final line search alpha, max atom move = 1.17224e-05 0.00022395
  Iterations, force evaluations = 1030 1470

MPI task timing breakdown:
Section |  min time  |  avg time  |  max time  |%varavg| %total
---------------------------------------------------------------
Pair    | 2.9672     | 3.0056     | 3.0946     |   2.4 | 82.66
Neigh   | 0          | 0          | 0          |   0.0 |  0.00
Comm    | 0.045547   | 0.13431    | 0.17297    |  11.5 |  3.69
Output  | 0.0016941  | 0.0020757  | 0.0029631  |   0.8 |  0.06
Modify  | 0.46611    | 0.46623    | 0.46636    |   0.0 | 12.82
Other   |            | 0.02773    |            |       |  0.76

Nlocal:    6.25 ave 8 max 6 min
Histogram: 7 0 0 0 0 0 0 0 0 1
Nghost:    608.5 ave 628 max 588 min
Histogram: 1 0 0 2 1 0 1 2 0 1
Neighs:    827.625 ave 1030 max 792 min
Histogram: 7 0 0 0 0 0 0 0 0 1

Total # of neighbors = 6621
Ave neighs/atom = 132.42
Neighbor list builds = 0
Dangerous builds = 0
WARNING: Using 'neigh_modify every 1 delay 0 check yes' setting during minimization (../min.cpp:190)
WARNING: Total cutoff < 2*bond cutoff. May need to use an increased neighbor list skin. (../pair_reaxc.cpp:413)
Setting up cg style minimization ...
  Unit style    : real
  Current step  : 1535
Per MPI rank memory allocation (min/avg/max) = 18.89 | 19.12 | 19.39 Mbytes
Step Temp E_pair E_mol TotEng Press 
    1535            0   -8837.0647            0   -8837.0647    852.00067 
    1576            0   -8837.8381            0   -8837.8381    947.84595 
Loop time of 0.953539 on 8 procs for 41 steps with 50 atoms

99.5% CPU use with 8 MPI tasks x no OpenMP threads

Minimization stats:
  Stopping criterion = energy tolerance
  Energy initial, next-to-last, final = 
        -8837.06467479     -8837.83812472     -8837.83812591
  Force two-norm initial, final = 15.2582 18.334
  Force max component initial, final = 5.47623 8.30234
  Final line search alpha, max atom move = 3.17234e-07 2.63379e-06
  Iterations, force evaluations = 41 375

MPI task timing breakdown:
Section |  min time  |  avg time  |  max time  |%varavg| %total
---------------------------------------------------------------
Pair    | 0.73529    | 0.74617    | 0.7592     |   0.8 | 78.25
Neigh   | 0          | 0          | 0          |   0.0 |  0.00
Comm    | 0.0061752  | 0.019189   | 0.030098   |   5.0 |  2.01
Output  | 7.6753e-05 | 9.2452e-05 | 0.00013755 |   0.0 |  0.01
Modify  | 0.18607    | 0.18612    | 0.18617    |   0.0 | 19.52
Other   |            | 0.001962   |            |       |  0.21

Nlocal:    6.25 ave 8 max 6 min
Histogram: 7 0 0 0 0 0 0 0 0 1
Nghost:    592.875 ave 609 max 576 min
Histogram: 1 0 0 3 0 1 1 0 1 1
Neighs:    807.875 ave 1009 max 772 min
Histogram: 7 0 0 0 0 0 0 0 0 1

Total # of neighbors = 6463
Ave neighs/atom = 129.26
Neighbor list builds = 0
Dangerous builds = 0
WARNING: Using 'neigh_modify every 1 delay 0 check yes' setting during minimization (../min.cpp:190)
WARNING: Total cutoff < 2*bond cutoff. May need to use an increased neighbor list skin. (../pair_reaxc.cpp:413)
Setting up cg style minimization ...
  Unit style    : real
  Current step  : 1576
WARNING: Energy due to 3 extra global DOFs will be included in minimizer energies
Per MPI rank memory allocation (min/avg/max) = 18.89 | 19.12 | 19.39 Mbytes
Step Temp E_pair E_mol TotEng Press Volume 
    1576            0   -8837.8381            0   -8837.8381    947.84595    1351.2478 
    1584            0   -8837.8452            0   -8837.8452    541.94792    1351.3318 
Loop time of 0.0633803 on 8 procs for 8 steps with 50 atoms

99.4% CPU use with 8 MPI tasks x no OpenMP threads

Minimization stats:
  Stopping criterion = energy tolerance
  Energy initial, next-to-last, final = 
        -8837.83812591     -8837.84508824     -8837.84516412
  Force two-norm initial, final = 40.6181 24.3329
  Force max component initial, final = 27.8765 11.5232
  Final line search alpha, max atom move = 1.28474e-06 1.48044e-05
  Iterations, force evaluations = 8 26

MPI task timing breakdown:
Section |  min time  |  avg time  |  max time  |%varavg| %total
---------------------------------------------------------------
Pair    | 0.052752   | 0.053562   | 0.054511   |   0.2 | 84.51
Neigh   | 0          | 0          | 0          |   0.0 |  0.00
Comm    | 0.0004365  | 0.0013907  | 0.0021961  |   1.4 |  2.19
Output  | 1.8164e-05 | 2.1469e-05 | 2.7421e-05 |   0.0 |  0.03
Modify  | 0.0079501  | 0.0079543  | 0.007959   |   0.0 | 12.55
Other   |            | 0.000452   |            |       |  0.71

Nlocal:    6.25 ave 8 max 6 min
Histogram: 7 0 0 0 0 0 0 0 0 1
Nghost:    592.875 ave 609 max 576 min
Histogram: 1 0 0 3 0 1 1 0 1 1
Neighs:    808.625 ave 1007 max 774 min
Histogram: 7 0 0 0 0 0 0 0 0 1

Total # of neighbors = 6469
Ave neighs/atom = 129.38
Neighbor list builds = 0
Dangerous builds = 0
WARNING: Using 'neigh_modify every 1 delay 0 check yes' setting during minimization (../min.cpp:190)
WARNING: Total cutoff < 2*bond cutoff. May need to use an increased neighbor list skin. (../pair_reaxc.cpp:413)
Setting up cg style minimization ...
  Unit style    : real
  Current step  : 1584
Per MPI rank memory allocation (min/avg/max) = 18.89 | 19.12 | 19.39 Mbytes
Step Temp E_pair E_mol TotEng Press 
    1584            0   -8837.8452            0   -8837.8452    541.94792 
    1588            0   -8837.8457            0   -8837.8457    613.70052 
Loop time of 0.175331 on 8 procs for 4 steps with 50 atoms

99.5% CPU use with 8 MPI tasks x no OpenMP threads

Minimization stats:
  Stopping criterion = energy tolerance
  Energy initial, next-to-last, final = 
        -8837.84516412     -8837.84561813     -8837.84567561
  Force two-norm initial, final = 15.7492 18.0706
  Force max component initial, final = 6.48266 8.19077
  Final line search alpha, max atom move = 0.000106883 0.000875455
  Iterations, force evaluations = 4 69

MPI task timing breakdown:
Section |  min time  |  avg time  |  max time  |%varavg| %total
---------------------------------------------------------------
Pair    | 0.13689    | 0.13886    | 0.14126    |   0.3 | 79.20
Neigh   | 0          | 0          | 0          |   0.0 |  0.00
Comm    | 0.0011748  | 0.003569   | 0.005549   |   2.1 |  2.04
Output  | 0          | 0          | 0          |   0.0 |  0.00
Modify  | 0.032507   | 0.032516   | 0.032526   |   0.0 | 18.55
Other   |            | 0.0003832  |            |       |  0.22

Nlocal:    6.25 ave 8 max 6 min
Histogram: 7 0 0 0 0 0 0 0 0 1
Nghost:    592.875 ave 609 max 576 min
Histogram: 1 0 0 3 0 1 1 0 1 1
Neighs:    808.625 ave 1007 max 774 min
Histogram: 7 0 0 0 0 0 0 0 0 1

Total # of neighbors = 6469
Ave neighs/atom = 129.38
Neighbor list builds = 0
Dangerous builds = 0
WARNING: Total cutoff < 2*bond cutoff. May need to use an increased neighbor list skin. (../pair_reaxc.cpp:413)
Setting up Verlet run ...
  Unit style    : real
  Current step  : 0
  Time step     : 0.25
Per MPI rank memory allocation (min/avg/max) = 17.77 | 18 | 18.27 Mbytes
Step Temp TotEng KinEng PotEng Press 
       0          300   -8794.0278    43.817908   -8837.8457    2095.9541 
     200    195.30623   -8775.6381    28.526368   -8804.1645    14399.656 
     400    312.13451   -8747.9179     45.59027   -8793.5082   -8963.6237 
     600    318.67997   -8743.2678    46.546298   -8789.8141    22720.752 
     800    248.06687   -8759.5881     36.23257   -8795.8207   -13481.551 
    1000    309.20395     -8746.26    45.162234   -8791.4222   -3827.9728 
    1200    310.26491    -8745.238    45.317198   -8790.5552   -12144.127 
    1400    276.14069    -8761.931    40.333024    -8802.264    16938.421 
    1600    308.66189    -8748.173    45.083061   -8793.2561   -14107.945 
    1800    313.61723    -8743.941    45.806837   -8789.7478    23891.392 
    2000    271.71859   -8759.6396    39.687134   -8799.3267   -5664.7876 
    2200    350.84796   -8749.9606    51.244746   -8801.2054   -28112.635 
    2400    350.42972   -8743.7047    51.183656   -8794.8884    19789.298 
    2600    200.56114    -8762.739    29.293899   -8792.0329   -39935.358 
    2800    290.49584   -8752.5249    42.429734   -8794.9546    12618.083 
    3000    365.29074   -8743.6349    53.354253   -8796.9892    3887.8403 
    3200    328.54523   -8741.5514    47.987215   -8789.5386   -3905.4618 
    3400    292.38255   -8755.6543    42.705306   -8798.3596   -10339.666 
    3600    276.90274   -8743.5931    40.444329   -8784.0374    -13882.33 
    3800    304.01712   -8737.5951    44.404647   -8781.9998   -27728.192 
    4000    258.08175   -8754.1335    37.695341   -8791.8288    853.81132 
    4200    303.03159   -8749.1494    44.260701   -8793.4101    14725.537 
    4400    264.76949   -8752.4032    38.672151   -8791.0754   -19043.224 
    4600    326.43008   -8750.5934    47.678277   -8798.2717   -40559.575 
    4800     318.1657    -8740.069    46.471184   -8786.5402    11201.844 
    5000    263.47668   -8758.8257    38.483322   -8797.3091   -2045.6989 
    5200    291.98125   -8759.6389    42.646691   -8802.2856    26973.965 
    5400    244.89537   -8752.0578    35.769343   -8787.8271    9937.0109 
    5600     332.4341   -8739.0182    48.555222   -8787.5734   -22399.175 
    5800    299.36646    -8759.127    43.725373   -8802.8524    7008.3748 
    6000    284.47507   -8752.4512    41.550341   -8794.0015    3300.7748 
    6200    350.21958   -8742.2974    51.152964   -8793.4503    9782.6927 
    6400    281.74351   -8751.4366     41.15137   -8792.5879    -6880.178 
    6600     216.1293   -8769.8361    31.567778   -8801.4038    19922.033 
    6800    278.09114   -8763.4691    40.617906    -8804.087   -33088.677 
    7000    380.25413   -8743.5139    55.539801   -8799.0537   -514.67063 
    7200    328.38058   -8745.3761    47.963166   -8793.3393    8750.7416 
    7400    241.58551   -8756.5446    35.285905   -8791.8305    37777.965 
    7600    339.15973   -8737.0521    49.537565   -8786.5897     4417.255 
    7800    302.53055    -8753.508    44.187519   -8797.6955   -17624.775 
    8000    285.48524    -8755.367    41.697887   -8797.0649    8400.1156 
    8200    312.72608   -8740.8469    45.676674   -8786.5236   -9455.8281 
    8400    324.86012     -8743.98     47.44897    -8791.429    8860.5629 
    8600     301.7814   -8749.9665    44.078099   -8794.0446    5544.4981 
    8800    266.21629   -8759.4517    38.883469   -8798.3352    19959.549 
    9000    352.35046   -8742.8058      51.4642     -8794.27   -4826.7575 
    9200    330.89632   -8750.0156    48.330614   -8798.3462   -241.48661 
    9400     333.4133   -8747.2272    48.698244   -8795.9254    8804.9289 
    9600    299.25707   -8750.5021    43.709396   -8794.2115   -14707.621 
    9800    267.78902    -8758.039    39.113182   -8797.1522    -43673.49 
   10000    301.43009     -8749.08    44.026787   -8793.1068    14229.975 
   10200    276.96197   -8751.8611    40.452981   -8792.3141   -7462.4008 
   10400    272.97016   -8759.2382    39.869937   -8799.1082   -11796.526 
   10600    314.99458   -8745.0031    46.008012   -8791.0111   -17711.365 
   10800    299.51004   -8751.6833    43.746345   -8795.4296    6203.0193 
   11000    241.98905   -8764.2149    35.344847   -8799.5597   -17675.104 
   11200    275.97406   -8749.9426    40.308687   -8790.2513    3687.4183 
   11400    283.24603   -8751.1508    41.370828   -8792.5217    27274.323 
   11600    294.94645   -8747.2436    43.079787   -8790.3234   -5076.7517 
   11800    254.82023   -8758.8453    37.218965   -8796.0643    25434.721 
   12000    297.65886   -8748.5402    43.475961   -8792.0161   -612.41166 
   12200    302.88264   -8743.9935    44.238946   -8788.2324   -32603.181 
   12400    257.19707   -8757.7642    37.566126   -8795.3304   -16658.712 
   12600    255.00112   -8767.2477    37.245385   -8804.4931    857.43969 
   12800    307.11393   -8750.1065    44.856966   -8794.9634    22072.212 
   13000    327.80207   -8745.2736    47.878669   -8793.1523   -10059.556 
   13200      291.857   -8760.5674    42.628544   -8803.1959    11516.132 
   13400    281.10706   -8747.6847     41.05841   -8788.7432   -10433.186 
   13600    256.68039    -8752.666    37.490659   -8790.1567   -26912.648 
   13800    341.83356   -8751.9052    49.928105   -8801.8333    9774.6934 
   14000    277.24595   -8743.1198    40.494458   -8783.6143    5584.6905 
   14200    288.10694    -8751.397    42.080811   -8793.4778    15036.604 
   14400     259.1528   -8760.1962    37.851779    -8798.048   -9662.3801 
   14600    324.70732   -8742.3791    47.426652   -8789.8058    4441.2982 
   14800    318.23842   -8751.1911    46.481805   -8797.6729   -43316.109 
   15000    245.96488    -8758.522    35.925555   -8794.4475    1807.4397 
   15200    253.23589   -8748.2128    36.987556   -8785.2004   -9547.6105 
   15400    289.21915   -8755.3438     42.24326    -8797.587    19614.942 
   15600    355.08044    -8742.103    51.862941   -8793.9659     -3359.56 
   15800    292.96502   -8744.6313     42.79038   -8787.4216    36277.101 
   16000    261.12346   -8757.5821    38.139612   -8795.7217   -32078.912 
   16200    312.50357   -8736.9967    45.644176   -8782.6409    5039.6477 
   16400    306.47999   -8751.1497    44.764373   -8795.9141   -2818.2184 
   16600    324.79486   -8757.4625    47.439437   -8804.9019   -4323.8302 
   16800    268.01797   -8739.0113    39.146623   -8778.1579     11322.45 
   17000    353.77952   -8740.0547    51.672927   -8791.7277    62125.132 
   17200    290.66091   -8755.2827    42.453843   -8797.7366    37579.218 
   17400    322.56649   -8749.1199    47.113962   -8796.2338    16459.379 
   17600    353.34364   -8741.4723    51.609264   -8793.0816     10493.93 
   17800    286.35135   -8750.5725     41.82439   -8792.3969   -3190.2325 
   18000    329.68881   -8737.4228    48.154246    -8785.577    9280.1318 
   18200    293.52223   -8753.2033    42.871766   -8796.0751   -35320.937 
   18400    311.35272   -8754.2202    45.476082   -8799.6963    7190.9906 
   18600     347.4591   -8739.8018     50.74977   -8790.5515    17122.458 
   18800    236.52857   -8758.4278    34.547291   -8792.9751    31824.582 
   19000    334.28668   -8746.3559    48.825809   -8795.1817    8967.5367 
   19200    261.05863   -8748.9654    38.130142   -8787.0955   -14025.404 
   19400    265.09965   -8764.8143    38.720373   -8803.5347    16660.033 
   19600    352.37265    -8748.466    51.467441   -8799.9334   -7372.3052 
   19800    354.88628   -8743.7284    51.834581    -8795.563   -6969.1188 
   20000    251.17545   -8761.1697    36.686609   -8797.8563   -15246.078 
   20200    289.13923   -8754.9597    42.231588   -8797.1913   -14959.363 
   20400    249.62933   -8744.2154    36.460784   -8780.6762    -28611.58 
   20600    258.49861   -8757.6033    37.756228   -8795.3595   -33757.634 
   20800    265.38185   -8755.6946    38.761592   -8794.4562     18597.84 
   21000    320.67448   -8748.8496    46.837616   -8795.6873    4642.0092 
   21200    264.39391   -8758.5517    38.617293    -8797.169   -3031.0929 
   21400    306.64884   -8758.0492    44.789035   -8802.8383    6502.8803 
   21600    275.50276   -8739.6645    40.239849   -8779.9043    8963.9612 
   21800    326.09272   -8740.9976    47.629002   -8788.6266      10241.3 
   22000    240.40863   -8754.1792    35.114011   -8789.2932    7289.6284 
   22200    367.15322   -8741.9633    53.626287   -8795.5896    12333.276 
   22400    272.94732   -8758.6875    39.866602   -8798.5541   -15479.531 
   22600    305.69593   -8750.8455    44.649853   -8795.4954   -1060.3169 
   22800    325.84393   -8739.9794    47.592664   -8787.5721   -7734.0373 
   23000     340.4355   -8753.6578    49.723904   -8803.3817    10382.279 
   23200    284.62907   -8753.1672    41.572834     -8794.74    48697.118 
   23400    332.16239   -8747.8518    48.515536   -8796.3673   -10152.417 
   23600    248.98489   -8760.4914    36.366657   -8796.8581   -13537.664 
   23800    318.96188   -8746.6521    46.587474   -8793.2396   -3356.7643 
   24000    299.56869   -8750.2748    43.754911   -8794.0297   -25969.412 
   24200    302.65656   -8750.6189    44.205924   -8794.8248   -2004.0867 
   24400    300.67942   -8753.0347    43.917143   -8796.9518    30566.735 
   24600    361.57212   -8739.5572    52.811113   -8792.3683    33785.149 
   24800    314.89607   -8750.7707    45.993623   -8796.7643    -1711.341 
   25000    259.24829   -8753.8719    37.865726   -8791.7376   -13489.333 
   25200    293.06317   -8743.4997    42.804716   -8786.3044   -13391.829 
   25400     289.7196   -8745.1335    42.316355   -8787.4498    32541.204 
   25600    308.88384   -8749.2016    45.115479   -8794.3171   -4820.0201 
   25800    266.79074   -8759.3148    38.967373   -8798.2822    35827.277 
   26000    281.05761   -8756.3982    41.051188   -8797.4494   -18895.527 
   26200    324.08283   -8748.5165    47.335439    -8795.852    9179.7458 
   26400    242.89035   -8754.8909     35.47649   -8790.3673   -11872.039 
   26600    309.26015   -8745.8659    45.170442   -8791.0364   -28047.097 
   26800    270.71069   -8750.6917     39.53992   -8790.2316    15983.817 
   27000    250.85969   -8763.5921    36.640489   -8800.2326   -6408.4729 
   27200    305.60695   -8743.9904    44.636857   -8788.6273    5176.4987 
   27400     303.0394   -8749.9366    44.261841   -8794.1985    6841.9305 
   27600    386.95885   -8739.7687    56.519091   -8796.2878    8199.3117 
   27800     283.8365   -8752.1969    41.457071    -8793.654   -5250.2999 
   28000    330.37515   -8749.9899    48.254493   -8798.2444   -19364.046 
   28200     299.1444   -8752.9956    43.692939   -8796.6886   -53450.398 
   28400    301.15981   -8748.0366    43.987309   -8792.0239    31579.824 
   28600    289.20777   -8753.7327    42.241598   -8795.9743   -21498.999 
   28800    264.57476   -8753.1267    38.643708   -8791.7704    23172.652 
   29000     273.8141   -8751.8649    39.993203   -8791.8581    21331.343 
   29200    289.43508     -8749.57    42.274799   -8791.8448    11544.013 
   29400    320.07565   -8737.9756     46.75015   -8784.7257   -31099.842 
   29600    284.67928   -8752.5398    41.580168     -8794.12   -26990.778 
   29800    307.14558   -8746.0114    44.861589    -8790.873   -33313.427 
   30000    342.77968   -8734.9604    50.066295   -8785.0267    2995.0428 
   30200    276.05655   -8747.2049    40.320735   -8787.5256   -3180.1899 
   30400    311.51842   -8749.8786    45.500284   -8795.3789    -8828.557 
   30600    247.52136   -8760.6397    36.152893   -8796.7926   -30956.905 
   30800    321.92863   -8741.5439    47.020797   -8788.5646    17496.919 
   31000    292.48428   -8752.8095    42.720165   -8795.5297    30063.104 
   31200    320.80681   -8743.0416    46.856945   -8789.8985    31908.786 
   31400    322.14113   -8741.2806    47.051835   -8788.3324    28439.307 
   31600    384.53791   -8750.4224    56.165488   -8806.5879   -7779.3989 
   31800    277.63874   -8760.3843    40.551829   -8800.9361   -30363.222 
   32000    355.88636   -8737.1156    51.980652   -8789.0963    10546.173 
   32200    294.12713    -8754.706    42.960118   -8797.6661    1551.2997 
   32400    294.43257    -8756.647    43.004731   -8799.6518    32035.139 
   32600    320.07601   -8741.1846    46.750204   -8787.9348    4066.5432 
   32800    266.46544   -8763.6242     38.91986   -8802.5441   -19599.658 
   33000    254.37028   -8758.8392    37.153245   -8795.9925    6177.5858 
   33200    356.28802   -8743.8692    52.039319   -8795.9085   -17122.069 
   33400    278.06325   -8758.5657    40.613833   -8799.1795   -23056.536 
   33600    325.90052    -8753.258     47.60093    -8800.859    22735.979 
   33800    256.35067   -8757.5978    37.442499   -8795.0403    20152.998 
   34000    261.01645   -8760.1815    38.123982   -8798.3055    25769.778 
   34200    267.63249   -8750.4675     39.09032   -8789.5578   -19694.211 
   34400    375.50431    -8745.505    54.846045    -8800.351    -19955.84 
   34600    321.65601   -8738.1519    46.980978   -8785.1329    -9062.773 
   34800    286.95093   -8752.4552    41.911965   -8794.3671    -32475.16 
   35000    319.83681    -8747.299    46.715267   -8794.0143    12732.213 
   35200    412.00658   -8737.5231    60.177554   -8797.7006    20736.124 
   35400    276.25677   -8758.3549    40.349979   -8798.7049    8742.0661 
   35600    300.74501   -8754.9933    43.926724     -8798.92    21681.936 
   35800     356.3637   -8736.9701    52.050372   -8789.0204     35312.49 
   36000    313.75125   -8749.0127    45.826412   -8794.8391   -17918.955 
   36200    251.95503   -8758.4436    36.800474    -8795.244   -2117.8628 
   36400    257.67876   -8762.7502     37.63648   -8800.3866   -42068.532 
   36600    330.64599   -8745.3428    48.294052   -8793.6369   -8068.9358 
   36800    301.74322   -8755.6017    44.072521   -8799.6742   -446.56173 
   37000    241.21893   -8770.9349    35.232363   -8806.1672    30001.813 
   37200     308.1099   -8753.2458    45.002437   -8798.2482    19539.399 
   37400    348.64027   -8747.5658    50.922291   -8798.4881    7736.2733 
   37600    251.38399    -8761.726    36.717068    -8798.443   -31805.003 
   37800    328.57889   -8743.1695    47.992131   -8791.1617    12038.661 
   38000    252.79627   -8749.7906    36.923346   -8786.7139    16410.691 
   38200    313.97473   -8751.3452    45.859053   -8797.2043    13888.535 
   38400    348.87946   -8737.4635    50.957226   -8788.4207    16011.492 
   38600    333.27414   -8753.4712    48.677919   -8802.1491   -27764.826 
   38800    297.06527    -8758.189    43.389261   -8801.5782    17521.671 
   39000    305.27326   -8749.9343    44.588119   -8794.5224   -10942.369 
   39200    297.38775   -8752.0576    43.436363   -8795.4939    3960.3838 
   39400    328.77808   -8755.6756    48.021225   -8803.6968   -20214.757 
   39600    303.60846   -8743.0642    44.344959   -8787.4092   -4780.9416 
   39800      249.806   -8752.5097    36.486588   -8788.9963    19448.855 
   40000    346.38788   -8753.4065    50.593307   -8803.9998    24571.369 
   40200      256.693   -8757.0998      37.4925   -8794.5923   -20613.912 
   40400    343.75855   -8743.9982    50.209267   -8794.2075    -32446.38 
   40600      227.532   -8758.2666    33.233254   -8791.4998   -9268.3695 
   40800    262.96112   -8754.6638     38.40802   -8793.0718   -53202.198 
   41000    347.94592   -8744.4752    50.820873    -8795.296    11023.679 
   41200    255.95574   -8758.6851    37.384816   -8796.0699    7322.7444 
   41400    316.06396    -8755.804    46.164205   -8801.9682     12562.91 
   41600    362.47629   -8740.9712    52.943176   -8793.9144     20190.88 
   41800    276.25825   -8758.6933    40.350196   -8799.0435   -3244.7036 
   42000    273.89655   -8754.3172    40.005246   -8794.3225   -27518.905 
   42200    303.69319   -8751.8169    44.357335   -8796.1742   -39206.482 
   42400    275.34679   -8754.2909    40.217067    -8794.508   -17808.542 
   42600    257.92582   -8767.1759    37.672566   -8804.8484   -32176.072 
   42800    278.69321   -8750.0798    40.705845   -8790.7856    10274.431 
   43000    354.32847   -8748.9902    51.753108   -8800.7433    20276.823 
   43200    251.85203    -8762.559    36.785431   -8799.3445    3100.1721 
   43400    311.24962   -8754.9185    45.461024   -8800.3796   -16340.706 
   43600    372.25842   -8746.7964    54.371951   -8801.1683    35585.737 
   43800     239.8238   -8758.7963    35.028591   -8793.8249    13361.906 
   44000    210.55883   -8773.0898    30.754157    -8803.844    6683.6576 
   44200    294.91733   -8753.0437    43.075535   -8796.1192   -29414.621 
   44400    324.05768   -8742.9006    47.331765   -8790.2323    23833.376 
   44600    284.55291   -8760.6487     41.56171   -8802.2104   -23692.694 
   44800     262.5267   -8755.5715    38.344569    -8793.916   -22505.212 
   45000    354.80458    -8750.115    51.822648   -8801.9377    812.76564 
   45200    247.93403   -8767.5684    36.213169   -8803.7816   -556.45828 
   45400    299.01791   -8757.3305    43.674464    -8801.005    23691.637 
   45600    298.58515   -8748.1299    43.611255   -8791.7411    17274.215 
   45800    334.61788   -8749.4906    48.874184   -8798.3647    6010.0935 
   46000    250.68614   -8766.7506    36.615141   -8803.3657    2344.3628 
   46200    297.22121   -8749.5111    43.412038   -8792.9231   -23977.316 
   46400    352.51499   -8748.3976    51.488231   -8799.8858    35238.769 
   46600    277.87493   -8759.4911    40.586326   -8800.0775    2809.3385 
   46800    287.33222   -8751.7705    41.967656   -8793.7382   -9269.4979 
   47000    385.55564   -8732.8933    56.314139   -8789.2075    -27871.81 
   47200    324.05142   -8749.5289     47.33085   -8796.8597   -1522.0206 
   47400    310.65184   -8754.0393    45.373712    -8799.413   -19468.787 
   47600      312.548    -8740.762    45.650664   -8786.4126   -28078.071 
   47800    307.11022   -8750.6235    44.856424     -8795.48    17471.265 
   48000     279.4015   -8756.1198    40.809298   -8796.9291    21661.287 
   48200    342.42192   -8742.6689     50.01404   -8792.6829   -5549.3734 
   48400    306.56772   -8741.7997    44.777187   -8786.5769     16115.03 
   48600    337.46195   -8751.9797    49.289588   -8801.2693   -4335.6171 
   48800    268.26047    -8759.085    39.182042   -8798.2671   -16699.289 
   49000    329.85271   -8745.5031    48.178186   -8793.6813   -11671.635 
   49200    317.94102   -8741.9832    46.438368   -8788.4215    14022.572 
   49400    261.05138     -8757.42    38.129084   -8795.5491    35635.625 
   49600    297.53414   -8743.7046    43.457745   -8787.1624    9349.2325 
   49800    318.21033   -8743.7734    46.477703   -8790.2511   -38882.011 
   50000    290.09241   -8755.0765    42.370808   -8797.4473    103.34056 
   50200    293.07926   -8756.5339    42.807067    -8799.341   -231.87642 
   50400    342.59754    -8732.248    50.039692   -8782.2876    -12901.82 
   50600      273.186   -8748.9605    39.901463    -8788.862   -14383.767 
   50800    273.34006   -8759.0558    39.923965   -8798.9797   -4984.7477 
   51000    300.00979   -8741.5188    43.819338   -8785.3381   -1531.6951 
   51200     355.1354    -8750.235    51.870968   -8802.1059    8004.4821 
   51400    319.74242    -8755.386     46.70148   -8802.0875    19559.352 
   51600    304.58749   -8747.6763    44.487955   -8792.1643    -7062.559 
   51800    309.01272   -8734.9448    45.134303   -8780.0791   -934.53547 
   52000    303.74148   -8753.0989    44.364388   -8797.4633   -10157.468 
   52200    277.62665   -8754.4061    40.550062   -8794.9562     2041.962 
   52400    380.10132   -8737.1146    55.517482   -8792.6321   -26558.256 
   52600     293.1067   -8752.3124    42.811074   -8795.1234   -22568.509 
   52800    308.95885   -8753.1494    45.126435   -8798.2758    -21759.01 
   53000    301.65207   -8750.1442    44.059209   -8794.2034   -21770.867 
   53200    373.35453    -8743.544    54.532048   -8798.0761    33224.832 
   53400    285.77335   -8757.9381    41.739967   -8799.6781    38393.048 
   53600    315.66217   -8755.3399    46.105519   -8801.4454   -10419.161 
   53800    283.95233   -8747.1029     41.47399   -8788.5769    48865.149 
   54000    321.48842   -8750.0562      46.9565   -8797.0127   -4956.1949 
   54200    306.32807   -8754.8077    44.742184   -8799.5499    30616.883 
   54400    296.05132   -8745.6285    43.241164   -8788.8696    6445.5712 
   54600    350.51248   -8741.6654    51.195745   -8792.8612   -16941.721 
   54800    311.55588   -8759.5338    45.505756   -8805.0395    3351.7868 
   55000    351.14186   -8747.9795    51.287672   -8799.2672    2893.5279 
   55200     354.1844   -8742.1787    51.732064   -8793.9108    36258.924 
   55400    276.94944   -8760.7631    40.451151   -8801.2142    2512.9858 
   55600    309.00922   -8746.8726    45.133792   -8792.0064   -21450.931 
   55800    305.79304   -8748.6536    44.664037   -8793.3177   -34477.065 
   56000    274.41275   -8764.3884    40.080641    -8804.469   -4995.0605 
   56200    331.33515   -8749.4248     48.39471   -8797.8195   -17256.337 
   56400    294.02899   -8749.9994    42.945783   -8792.9452   -18036.761 
   56600    267.38939   -8764.8005    39.054812   -8803.8553    6313.8011 
   56800    360.14956   -8755.0516    52.603334    -8807.655    10432.045 
   57000    302.59436   -8748.9151    44.196839    -8793.112   -12987.179 
   57200    301.43773   -8762.1089    44.027902   -8806.1368   -14452.858 
   57400    259.58541   -8760.1412    37.914965   -8798.0562    -9560.023 
   57600    297.36057   -8747.6084    43.432393   -8791.0408    8813.1742 
   57800    244.34387   -8753.4289     35.68879   -8789.1177   -17839.239 
   58000    263.44954   -8763.4108    38.479359   -8801.8902   -5442.2556 
   58200    262.39661   -8754.4621    38.325568   -8792.7876    8696.9805 
   58400    344.92477    -8749.656    50.379606   -8800.0356    2765.8311 
   58600    366.41085   -8744.0093    53.517856   -8797.5272    27552.406 
   58800     288.9562    -8755.019    42.204853   -8797.2238    11346.741 
   59000    322.53761   -8751.9119    47.109743   -8799.0217     2480.498 
   59200     341.9156   -8739.5875    49.940088   -8789.5276   -14841.803 
   59400     285.9892   -8757.9078    41.771495   -8799.6793   -6562.4014 
   59600    300.80063   -8754.3469    43.934847   -8798.2818    33925.717 
   59800    351.89678   -8741.7529    51.397935   -8793.1508    12774.404 
   60000    336.34375   -8738.1742    49.126265   -8787.3004    7190.3091 
   60200    290.41534   -8753.6705    42.417975   -8796.0884    33691.237 
   60400    225.38204   -8760.6855    32.919232   -8793.6047    4736.7844 
   60600     350.1195   -8744.0514    51.138346   -8795.1898    28159.251 
   60800    256.57907   -8755.3212     37.47586    -8792.797    36065.429 
   61000    294.11499   -8759.2421    42.958344   -8802.2004    33132.737 
   61200     315.2827   -8744.0124    46.050094   -8790.0625    411.00112 
   61400    327.50178   -8750.3449    47.834809   -8798.1797    17374.733 
   61600    266.71093   -8763.3468    38.955717   -8802.3025    10598.681 
   61800    271.02553   -8753.5482    39.585906   -8793.1341   -4868.8603 
   62000    353.41365   -8750.5499    51.619489   -8802.1694   -12480.881 
   62200    383.20059   -8736.0333     55.97016   -8792.0035     6346.647 
   62400    307.56449   -8751.2595    44.922774   -8796.1823   -31103.315 
   62600    249.07988   -8754.9667     36.38053   -8791.3472   -157.83729 
   62800    257.13713   -8765.3395    37.557371   -8802.8969     329.0119 
   63000    308.55545   -8753.1024    45.067514     -8798.17    7286.6443 
   63200    290.77015   -8747.6848    42.469798   -8790.1546   -39700.092 
   63400    253.84841   -8756.6396    37.077021   -8793.7166   -5511.4689 
   63600     283.4472   -8746.2981    41.400211   -8787.6983    15602.754 
   63800    345.91241   -8743.1879    50.523861   -8793.7117    55156.444 
   64000    317.68835   -8757.8398    46.401463   -8804.2413    -3730.201 
   64200    280.92139   -8754.2047    41.031292    -8795.236    1844.4248 
   64400    393.33909   -8728.4158    57.450986   -8785.8668   -1498.6149 
   64600    304.17837   -8748.4429    44.428199   -8792.8711    -14508.47 
   64800    316.64338   -8754.7596    46.248835   -8801.0084   -2766.0824 
   65000    299.13661   -8748.0031    43.691801   -8791.6949   -9072.6898 
   65200    312.36918   -8750.2005    45.624546   -8795.8251    14362.606 
   65400    280.30458   -8762.3538    40.941201    -8803.295    13732.855 
   65600     291.3071   -8746.7729    42.548226   -8789.3212   -15930.878 
   65800     263.3826   -8748.9302    38.469581   -8787.3998    -30419.17 
   66000     295.5766   -8762.4013    43.171827   -8805.5731   -26208.449 
   66200    306.22758   -8758.8419    44.727506   -8803.5694    -6530.432 
   66400    265.15548   -8751.9294    38.728528   -8790.6579    55286.667 
   66600    265.31795   -8757.0174    38.752258   -8795.7697   -14252.146 
   66800    278.58599   -8756.4398    40.690184     -8797.13   -18420.899 
   67000    323.81802   -8742.3657    47.296761   -8789.6625   -14324.142 
   67200    331.01457   -8758.4826    48.347886   -8806.8305    3823.8729 
   67400    259.33531   -8755.4677    37.878436   -8793.3461    14682.135 
   67600    328.48695   -8747.2437    47.978703   -8795.2224   -15389.043 
   67800    233.91435   -8762.6924    34.165458   -8796.8578    42824.132 
   68000    298.07265   -8748.2684    43.536399   -8791.8048   -17691.082 
   68200    294.69932   -8747.9516    43.043692   -8790.9952   -970.82276 
   68400    260.50519   -8761.2538    38.049309   -8799.3031   -1983.1298 
   68600    260.40882   -8764.7847    38.035233   -8802.8199    7407.4903 
   68800    328.07326   -8747.6508    47.918279   -8795.5691    9444.6885 
   69000    299.75306   -8745.6147     43.78184   -8789.3966    44924.477 
   69200    308.99036   -8758.3124    45.131037   -8803.4435   -24979.905 
   69400    323.13374   -8750.8661    47.196814   -8798.0629    28457.323 
   69600    246.92347   -8762.4355    36.065566   -8798.5011   -2052.0586 
   69800    304.16113   -8754.1245    44.425681   -8798.5502    13172.175 
   70000    252.53255    -8751.408    36.884827   -8788.2928    1973.5979 
   70200    324.40407   -8747.5839    47.382358   -8794.9662    42894.886 
   70400    284.49803   -8757.1412    41.553695   -8798.6949   -27722.506 
   70600    323.09192   -8741.9279    47.190706   -8789.1186    34531.162 
   70800    293.64916   -8749.1556    42.890306    -8792.046    57669.392 
   71000    290.32607   -8758.1931    42.404936   -8800.5981    1298.5694 
   71200    290.69511   -8753.6595    42.458838   -8796.1183   -40249.548 
   71400    319.80567   -8749.5521    46.710718   -8796.2628   -3763.4506 
   71600    266.55491    -8758.112    38.932928   -8797.0449    13749.312 
   71800    268.01094   -8760.6188    39.145595   -8799.7644    22746.809 
   72000     336.6053   -8746.6364    49.164466   -8795.8008    2782.6085 
   72200    336.11367   -8754.9838     49.09266   -8804.0764   -11320.609 
   72400    237.23248   -8765.9568    34.650103   -8800.6069    38873.021 
   72600    347.33966   -8744.0297    50.732324    -8794.762   -22503.734 
   72800    265.58274   -8757.2969    38.790933   -8796.0878   -3635.8838 
   73000    294.13687   -8752.8857    42.961541   -8795.8472   -713.99169 
   73200    339.46542   -8740.1714    49.582214   -8789.7536   -19037.174 
   73400    310.47373   -8760.3324    45.347697   -8805.6801    19807.657 
   73600    293.42919   -8746.8634    42.858177   -8789.7216    35380.939 
   73800    283.87963   -8749.6488    41.463371   -8791.1121    10186.768 
   74000    267.55594   -8762.8036    39.079139   -8801.8827   -22356.725 
   74200    326.68302    -8752.176    47.715221   -8799.8913   -25331.066 
   74400     335.7673   -8745.6226    49.042068   -8794.6646   -9006.1188 
   74600    261.74393   -8757.4745    38.230238   -8795.7047    26127.303 
   74800    293.74393   -8754.6044    42.904147   -8797.5086    34145.524 
   75000    347.45263    -8738.738    50.748824   -8789.4868    32082.623 
   75200     288.7187    -8750.229    42.170165   -8792.3991   -892.30282 
   75400    344.97447   -8754.9645    50.386865   -8805.3514   -16827.489 
   75600    309.68807   -8742.9641    45.232944   -8788.1971   -32505.425 
   75800    273.61132   -8750.2734    39.963586    -8790.237   -9887.3126 
   76000    278.91596   -8757.9591     40.73838   -8798.6974     5397.484 
   76200     284.3423   -8750.3583    41.530949   -8791.8892   -22079.809 
   76400    322.85225   -8742.2268    47.155701   -8789.3825   -11086.188 
   76600    309.41314   -8754.6969    45.192789   -8799.8897   -32175.229 
   76800    347.38313   -8741.5414    50.738674   -8792.2801    20920.497 
   77000    291.63571   -8758.2652    42.596223   -8800.8614    22390.658 
   77200    338.99311   -8751.0811    49.513229   -8800.5943    14357.814 
   77400    309.48973   -8747.5299    45.203975   -8792.7338    57773.204 
   77600    319.92522   -8761.1524    46.728179   -8807.8806    8085.3961 
   77800    300.98204   -8755.6732    43.961344   -8799.6346    1848.3714 
   78000    290.96526   -8743.6422    42.498296   -8786.1405    14724.701 
   78200    308.16592   -8757.5112    45.010619   -8802.5218   -22669.686 
   78400    325.50865   -8737.4452    47.543693   -8784.9889    27454.178 
   78600    341.17646   -8746.6282    49.832129   -8796.4603    10459.069 
   78800    265.86154   -8759.0448    38.831655   -8797.8765    17390.335 
   79000    311.89348   -8746.6324    45.555065   -8792.1874    11158.111 
   79200    309.71218    -8743.453    45.236466   -8788.6895    -52832.54 
   79400    259.15163   -8759.4363    37.851608   -8797.2879   -31457.874 
   79600    265.43835   -8749.7803    38.769844   -8788.5501    7906.4264 
   79800    302.90657   -8749.4645     44.24244   -8793.7069    15234.578 
   80000    259.09094   -8759.1432    37.842743    -8796.986    17554.888 
   80200    268.19074    -8753.832    39.171856   -8793.0039   -11022.528 
   80400    341.63571   -8743.0039    49.899207   -8792.9031   -14191.801 
   80600    340.86826   -8755.8559    49.787113    -8805.643    14768.919 
   80800     303.7389    -8753.787    44.364011    -8798.151    15268.816 
   81000    379.33703   -8735.0864    55.405849   -8790.4923   -25090.389 
   81200    306.59599   -8749.9378    44.781317   -8794.7191    625.86956 
   81400    336.59761   -8753.7172    49.163344   -8802.8805     13787.54 
   81600     257.7781   -8767.1882     37.65099   -8804.8392   -24638.063 
   81800     310.9388   -8754.5885    45.415625   -8800.0041   -1501.1846 
   82000     296.9348   -8752.1559    43.370205   -8795.5261   -32523.677 
   82200     353.7066   -8740.6921    51.662277   -8792.3544    15003.756 
   82400    291.18813   -8757.5318    42.530849   -8800.0627    33329.122 
   82600    345.09997    -8751.018    50.405196   -8801.4232    40990.295 
   82800     291.5882   -8738.9836    42.589282   -8781.5729   -13870.694 
   83000    298.74242   -8762.0322    43.634226   -8805.6664    -15266.79 
   83200    248.59077   -8756.4788    36.309091   -8792.7879   -17161.477 
   83400    316.48005   -8746.0225    46.224978   -8792.2474    44549.971 
   83600    241.10367   -8757.8857    35.215528   -8793.1012    15100.865 
   83800    347.54295    -8751.195    50.762016    -8801.957    13988.267 
   84000    283.08412   -8755.2589    41.347179   -8796.6061   -9246.4181 
   84200    331.22036   -8739.8323    48.377944   -8788.2102   -16681.324 
   84400    269.00328   -8751.3267    39.290536   -8790.6173    9935.9978 
   84600    313.07768   -8751.0362    45.728029   -8796.7642    12760.347 
   84800    298.95842   -8751.2574    43.665775   -8794.9231   -10295.854 
   85000    336.68752    -8750.228    49.176475   -8799.4044   -15060.316 
   85200    276.00311   -8759.3774    40.312929   -8799.6904   -31986.228 
   85400    238.91534    -8756.681    34.895901   -8791.5769   -13779.555 
   85600    299.44548    -8744.282    43.736914   -8788.0189    976.51828 
   85800    328.46578    -8759.151    47.975611   -8807.1266   -291.68164 
   86000    243.02866   -8762.9192    35.496691   -8798.4159    -39011.54 
   86200     281.7991    -8750.691     41.15949   -8791.8505   -27567.291 
   86400    332.80486   -8753.1116    48.609375    -8801.721    36190.609 
   86600    246.42388   -8758.9181    35.992596   -8794.9107    31022.223 
   86800    294.97822   -8747.5335    43.084428    -8790.618   -22734.298 
   87000    323.75212   -8736.5738    47.287135   -8783.8609   -35507.977 
   87200    285.47317    -8760.634    41.696123   -8802.3301    19408.761 
   87400    290.89226   -8751.8174    42.487633    -8794.305   -22679.017 
   87600    330.91101   -8744.6247     48.33276   -8792.9575    14343.924 
   87800     312.7462    -8751.757    45.679614   -8797.4366   -7688.8988 
   88000    241.73503   -8754.5561    35.307744   -8789.8639    -3993.883 
   88200    274.01384    -8761.867    40.022378   -8801.8893    45878.898 
   88400    363.54977   -8746.5099    53.099968   -8799.6099   -24838.476 
   88600    275.11069    -8754.036    40.182583   -8794.2185    16512.808 
   88800    324.09349   -8747.1023    47.336995   -8794.4393    7531.3349 
   89000    302.42921   -8747.3335    44.172718   -8791.5062     22514.07 
   89200    309.88835   -8753.6206    45.262198   -8798.8828   -31728.751 
   89400    315.69574    -8750.486    46.110423   -8796.5964    19311.009 
   89600    331.14226   -8741.1665    48.366536   -8789.5331   -4296.9401 
   89800    244.52071   -8755.6951     35.71462   -8791.4097    9383.3812 
   90000    307.11322   -8748.5054    44.856862   -8793.3622   -3708.7158 
   90200    255.39172   -8766.7403    37.302436   -8804.0427    6652.4208 
   90400    288.08147   -8754.3119    42.077091    -8796.389     16126.08 
   90600    328.83164   -8750.4864    48.029048   -8798.5154   -25456.768 
   90800    300.44126   -8746.5504    43.882358   -8790.4328    29559.056 
   91000    270.25768   -8757.7084    39.473753   -8797.1821    6644.9661 
   91200    339.16068   -8745.4414    49.537705   -8794.9791    69768.033 
   91400    265.29489   -8748.0152     38.74889   -8786.7641    1834.0797 
   91600    276.91604   -8759.2598    40.446272   -8799.7061    19419.505 
   91800     317.9698   -8744.3649    46.442572   -8790.8074   -9196.3493 
   92000    288.10057   -8741.3726    42.079881   -8783.4525   -30617.399 
   92200    296.05492     -8750.17     43.24169   -8793.4117   -12133.868 
   92400    264.17227   -8762.5051     38.58492     -8801.09   -4150.1515 
   92600    252.52285    -8769.629     36.88341   -8806.5124    19436.733 
   92800    299.54105   -8749.0099    43.750873   -8792.7608    25019.759 
   93000    299.74323   -8751.5243    43.780405   -8795.3047   -37142.292 
   93200    252.19045   -8763.2963     36.83486   -8800.1312   -8934.5207 
   93400     346.6384   -8751.7252    50.629898   -8802.3551   -11157.693 
   93600    308.36711   -8754.9641    45.040005   -8800.0041    16563.474 
   93800    299.22234   -8740.5045    43.704323   -8784.2088    30001.476 
   94000    308.03952   -8749.2416    44.992157   -8794.2337   -11499.901 
   94200    291.33105   -8759.6301    42.551723   -8802.1818   -10255.315 
   94400    284.37548   -8743.8654    41.535795   -8785.4012    17657.864 
   94600    325.57952   -8746.7722    47.554045   -8794.3263   -9918.2267 
   94800    327.47535   -8757.2501    47.830949    -8805.081   -4320.6553 
   95000    354.03733   -8742.8104    51.710584    -8794.521   -23823.367 
   95200     322.6828   -8737.9837    47.130951   -8785.1146   -16378.607 
   95400    318.84358   -8756.8594    46.570195   -8803.4296   -324.72109 
   95600    225.98418   -8750.1731    33.007179   -8783.1803    11272.574 
   95800    327.39303   -8744.0352    47.818926   -8791.8542   -7268.3889 
   96000    289.07315    -8755.337    42.221935   -8797.5589    27846.483 
   96200    333.05843   -8753.7723    48.646412   -8802.4187    7358.6719 
   96400    274.76543   -8749.8822    40.132155   -8790.0144   -41219.662 
   96600    329.69173    -8746.815    48.154673   -8794.9697    1371.7453 
   96800    267.98205    -8760.216    39.141376   -8799.3574    24196.125 
   97000    320.94341   -8751.5901    46.876896    -8798.467    9209.9399 
   97200    333.82949   -8749.4246    48.759033   -8798.1836    4671.9103 
   97400    275.60275   -8758.3011    40.254452   -8798.5556   -55986.461 
   97600    319.85769   -8744.3579    46.718316   -8791.0762    2070.6268 
   97800    305.69155   -8751.4327    44.649213   -8796.0819   -2143.5529 
   98000    287.49908   -8756.9826    41.992028   -8798.9746     -13889.4 
   98200    336.13585   -8744.3791    49.095899    -8793.475   -7649.0493 
   98400    270.14688   -8748.4283     39.45757   -8787.8858   -26013.568 
   98600    302.31113   -8755.4851    44.155471   -8799.6406    17810.362 
   98800    365.39478   -8750.1056    53.369449   -8803.4751    -26495.59 
   99000    374.87304   -8731.7065    54.753842   -8786.4603   -2977.8134 
   99200    314.70933   -8751.1618    45.966349   -8797.1281    9529.8218 
   99400    266.64117   -8758.4692    38.945528   -8797.4147    4478.5098 
   99600    415.11719   -8739.0807    60.631889   -8799.7126   -21649.086 
   99800     309.7669    -8749.922    45.244458   -8795.1665    2859.5971 
  100000    321.57201   -8754.3548    46.968709   -8801.3235    -5600.922 
  100200    267.33012   -8758.9207    39.046155   -8797.9669   -31191.643 
  100400    327.94989   -8743.8328     47.90026   -8791.7331    701.63433 
  100600    242.43406   -8756.9352    35.409845   -8792.3451   -17870.189 
  100800     325.1108   -8751.3813    47.485584   -8798.8669    27038.932 
  101000    316.85412   -8739.3622    46.279615   -8785.6418    48494.866 
  101200    312.60259   -8755.1852    45.658638   -8800.8439    2161.0294 
  101400    273.86328    -8753.343    40.000387   -8793.3433   -10219.738 
  101600    349.13163   -8736.7877    50.994058   -8787.7818    19104.068 
  101800    284.39565    -8751.373    41.538741   -8792.9117    6428.2672 
  102000    249.77943   -8761.9862    36.482707   -8798.4689   -2569.5929 
  102200    241.94085   -8764.9928    35.337806   -8800.3306   -48.056878 
  102400    303.44736   -8750.1236    44.321429    -8794.445    20148.258 
  102600    336.44515   -8745.2823    49.141075   -8794.4233    3068.5127 
  102800    283.62968   -8762.6798    41.426864   -8804.1066    4871.4212 
  103000    262.78199    -8751.664    38.381856   -8790.0459   -27876.775 
  103200    266.23714    -8749.145    38.886515   -8788.0315    21759.366 
  103400     302.3567   -8753.0112    44.162127   -8797.1734     12765.05 
  103600    307.60995   -8755.5553    44.929414   -8800.4847   -18504.648 
  103800    338.00726   -8742.6977    49.369236    -8792.067    6703.2007 
  104000    301.28474   -8752.9381    44.005556   -8796.9437    10868.113 
  104200    323.23034   -8753.1516    47.210923   -8800.3626    25135.319 
  104400    301.22335   -8747.7822     43.99659   -8791.7788   -21682.252 
  104600    301.16779     -8741.64    43.988474   -8785.6285    8129.4808 
  104800    249.72236   -8758.8891    36.474371   -8795.3634   -4508.9734 
  105000    276.13453   -8753.2046    40.332124   -8793.5367   -3024.6884 
  105200    373.41431     -8743.32    54.540779   -8797.8607    8112.6068 
  105400    317.17369   -8755.4398    46.326292   -8801.7661    2019.2998 
  105600     321.5162   -8749.7859    46.960557   -8796.7465   -493.17401 
  105800    332.77285   -8739.5421    48.604699   -8788.1468     16149.65 
  106000    310.39166   -8756.6367     45.33571   -8801.9724   -20663.767 
  106200    257.40212   -8751.0691    37.596074   -8788.6652    49195.937 
  106400    413.23379   -8727.2249      60.3568   -8787.5817    24057.278 
  106600    326.16178    -8741.029    47.639089   -8788.6681    14176.209 
  106800    281.72169   -8757.2617    41.148183   -8798.4099    7186.9678 
  107000    291.94656   -8754.2528    42.641625   -8796.8945    13523.073 
  107200    298.07198   -8740.2542    43.536302   -8783.7905     19036.09 
  107400    272.39159   -8760.7282    39.785433   -8800.5137   -37216.307 
  107600    287.39026   -8750.5833    41.976133   -8792.5594   -23637.514 
  107800    285.66403   -8744.7292       41.724   -8786.4532   -21740.422 
  108000    304.44671   -8760.6122    44.467392   -8805.0796    7923.1749 
  108200    283.08518   -8757.7492    41.347335   -8799.0965    20544.001 
  108400    376.24092   -8745.1129    54.953633   -8800.0665    12109.607 
  108600    306.89856   -8751.4074     44.82551   -8796.2329   -30382.974 
  108800    256.44947   -8758.5987     37.45693   -8796.0556    14433.417 
  109000    298.78359   -8749.9713     43.64024   -8793.6115    40713.853 
  109200    266.99675   -8751.9224    38.997463   -8790.9198   -9967.5518 
  109400    315.06105   -8756.5154    46.017721   -8802.5331    23112.492 
  109600    280.21285   -8746.6338    40.927803   -8787.5616   -11384.702 
  109800    322.51765   -8745.2841    47.106829   -8792.3909    -16740.97 
  110000    299.04441    -8757.671    43.678334   -8801.3493    1134.9514 
  110200    291.13662   -8748.7602    42.523326   -8791.2835   -21163.967 
  110400    332.49075   -8729.7467    48.563496   -8778.3102   -25.395424 
  110600    312.00973   -8750.3336    45.572045   -8795.9057   -21312.996 
  110800    311.41691   -8750.0557    45.485459   -8795.5412    9138.5226 
  111000    305.38605   -8741.5508    44.604592   -8786.1554   -10515.046 
  111200    215.90978   -8759.1929    31.535716   -8790.7286       -14759 
  111400    241.32912     -8751.41    35.248458   -8786.6584   -9536.9753 
  111600     350.2775   -8738.0641    51.161423   -8789.2255    4840.0895 
  111800     287.7106   -8752.4511    42.022922    -8794.474     7219.541 
  112000    215.86208   -8760.9773    31.528749    -8792.506   -18034.624 
  112200    349.78922   -8742.1002    51.090105   -8793.1903    28886.199 
  112400    302.66998   -8749.7035    44.207885   -8793.9114   -18494.206 
  112600    280.82025   -8756.0586     41.01652   -8797.0752   -2109.2629 
  112800    389.19916   -8740.6744     56.84631   -8797.5207   -23117.593 
  113000    316.56112   -8738.9509     46.23682   -8785.1877    8333.7141 
  113200    295.83512   -8755.7668    43.209586   -8798.9764     8687.844 
  113400    293.52192   -8755.3834    42.871722   -8798.2551    1298.3297 
  113600    361.79384   -8737.5093    52.843497   -8790.3528    -7884.319 
  113800    282.67328     -8755.85    41.287172   -8797.1372     14298.03 
  114000     285.5898   -8752.7565    41.713159   -8794.4697    27340.479 
  114200    353.63457   -8739.0849    51.651757   -8790.7366    6901.6358 
  114400     263.4533   -8759.7572    38.479908   -8798.2372    9849.6729 
  114600    308.71866   -8750.1402    45.091353   -8795.2316    27834.126 
  114800    288.38935   -8749.7884    42.122059   -8791.9105    1422.5127 
  115000    307.49243   -8759.8543    44.912249   -8804.7666   -6401.5045 
  115200    284.01671   -8747.6096    41.483394    -8789.093   -160.97319 
  115400    350.49282   -8728.8135    51.192874   -8780.0064    16708.744 
  115600    319.03847    -8749.561    46.598661   -8796.1597   -6218.9944 
  115800    261.28733   -8756.6944    38.163547    -8794.858   -9506.8028 
  116000    335.48578   -8744.0661     49.00095   -8793.0671    49176.787 
  116200    293.27343   -8745.8572    42.835426   -8788.6926   -33636.186 
  116400    284.51904   -8759.7408    41.556763   -8801.2976    14562.606 
  116600    297.66555   -8747.2507    43.476938   -8790.7276    16386.152 
  116800    383.83712   -8727.3493    56.063131   -8783.4125    24545.836 
  117000    323.36734   -8747.2958    47.230934   -8794.5267    11080.213 
  117200     301.7298   -8756.6159    44.070562   -8800.6865    28070.047 
  117400    324.28655   -8743.4421    47.365194   -8790.8073    31040.121 
  117600    307.48555   -8754.1821    44.911245   -8799.0933   -30914.121 
  117800    288.61281   -8754.3596    42.154698   -8796.5143   -11480.755 
  118000     367.7817   -8742.3097    53.718082   -8796.0278   -29973.136 
  118200    249.04136   -8760.4837    36.374904   -8796.8586   -23808.521 
  118400    322.12559   -8752.3397    47.049564   -8799.3893   -27684.791 
  118600    342.61204    -8744.271     50.04181   -8794.3128   -24509.964 
  118800    274.56769    -8761.937    40.103272   -8802.0402   -9661.2022 
  119000    311.81022   -8747.0092    45.542905   -8792.5521   -5322.3412 
  119200    306.88834   -8749.9858    44.824016   -8794.8098    3124.1994 
  119400    262.54338   -8770.8794    38.347005   -8809.2264    38042.211 
  119600    257.15341   -8762.7228    37.559749   -8800.2826    21770.008 
  119800    359.93361    -8748.381    52.571792   -8800.9527   -21160.161 
  120000    338.05388   -8750.6492    49.376046   -8800.0253   -11637.124 
  120200    260.87633   -8764.3771    38.103516   -8802.4807    -8497.787 
  120400    329.04282   -8750.2757    48.059894   -8798.3356   -14479.601 
  120600    366.19928   -8746.3411    53.486955   -8799.8281    3849.8448 
  120800    326.99806   -8755.5141    47.761236   -8803.2753    5821.3664 
  121000    271.28185   -8761.1981    39.623344   -8800.8214    11500.793 
  121200    331.95903   -8744.6075    48.485834   -8793.0933    8853.3711 
  121400    295.12675   -8756.6319    43.106123   -8799.7381   -9367.6784 
  121600     300.2724   -8748.9554    43.857694   -8792.8131      17919.9 
  121800    318.66816    -8743.389    46.544573   -8789.9336    4163.4653 
  122000    276.49207   -8754.5887    40.384347   -8794.9731    12093.598 
  122200    297.73551   -8742.2363    43.487158   -8785.7234    43636.026 
  122400    330.70836   -8746.6376    48.303162   -8794.9408    5952.1773 
  122600    274.83836   -8753.5596    40.142806   -8793.7024   -2445.9524 
  122800     397.8841   -8744.4327     58.11483   -8802.5475   -821.81554 
  123000    262.73192   -8762.3206    38.374544   -8800.6952   -15288.892 
  123200    278.06141   -8751.7097    40.613564   -8792.3232    7419.2464 
  123400    348.92212   -8749.6434    50.963457   -8800.6068    16624.137 
  123600    280.47351   -8755.0173    40.965874   -8795.9832    11361.792 
  123800    408.50774    -8733.534    59.666514   -8793.2006    11671.638 
  124000    312.99372   -8749.3234    45.715766   -8795.0391   -27138.449 
  124200    274.89573   -8757.7818    40.151185    -8797.933    4115.3764 
  124400    326.34472   -8738.7708     47.66581   -8786.4366   -6271.6195 
  124600    273.05776   -8749.4009    39.882732   -8789.2836    3003.2304 
  124800    309.53171   -8754.7507    45.210107   -8799.9608    23125.844 
  125000    243.73941   -8766.8583    35.600503   -8802.4589    12709.825 
  125200    324.65681   -8749.4528    47.419274   -8796.8721    2365.1612 
  125400    331.32441   -8747.3866    48.393141   -8795.7798   -4231.6642 
  125600     251.0812   -8762.5705    36.672843   -8799.2433    25272.902 
  125800    306.02304   -8753.4369    44.697631   -8798.1345   -12798.542 
  126000    326.11502   -8747.4197    47.632259   -8795.0519    1769.6987 
  126200    240.81315   -8758.5099    35.173094    -8793.683    47325.536 
  126400     391.8693   -8742.4106     57.23631   -8799.6469   -8758.4279 
  126600      299.929   -8751.9682    43.807537   -8795.7758   -29881.379 
  126800    235.79307   -8762.9334    34.439863   -8797.3733    3974.0203 
  127000    350.01999   -8753.9749    51.123812   -8805.0987    2744.3627 
  127200    357.42182   -8746.7407    52.204922   -8798.9456    1568.6762 
  127400    278.47395   -8759.7291    40.673819   -8800.4029    5353.1574 
  127600    359.98394   -8739.4702    52.579144   -8792.0494    8837.3788 
  127800    307.57872   -8751.2269    44.924853   -8796.1518    32871.029 
  128000    275.59358   -8761.2824    40.253113   -8801.5355   -18104.317 
  128200    292.59877   -8764.1878    42.736886   -8806.9247   -11615.134 
  128400    304.93744   -8751.9806    44.539069   -8796.5197   -34323.462 
  128600    303.38135   -8749.6274    44.311786   -8793.9392    8725.1918 
  128800    327.96854    -8745.685    47.902984    -8793.588    259.52549 
  129000    264.21055   -8761.1248    38.590512   -8799.7153    17450.069 
  129200    294.52595   -8750.8258     43.01837   -8793.8442    -6146.922 
  129400    374.25074   -8730.8513    54.662948   -8785.5142    972.97576 
  129600    273.11514   -8753.1471    39.891113   -8793.0382    18189.213 
  129800    280.82468   -8752.9503    41.017167   -8793.9675    4766.9695 
  130000    255.06988   -8750.9937    37.255428   -8788.2492    11186.873 
  130200    209.21225   -8757.5309    30.557477   -8788.0884    32260.841 
  130400    257.22762   -8751.3327    37.570587   -8788.9033   -25981.738 
  130600    355.78602   -8740.5816    51.965997   -8792.5476   -45717.422 
  130800    284.80874   -8759.1988    41.599077   -8800.7979    27293.285 
  131000    323.35257   -8750.7691    47.228777   -8797.9979    31633.904 
  131200    396.48539   -8733.1549    57.910534   -8791.0654    9991.5267 
  131400    353.87055   -8750.4751    51.686224   -8802.1613   -13175.882 
  131600     344.8008   -8755.6169    50.361499   -8805.9784   -21493.207 
  131800    339.90016   -8746.3976    49.645713   -8796.0433    16309.384 
  132000    298.32155   -8748.4696    43.572754   -8792.0424    7679.4966 
  132200    324.33706   -8757.0097    47.372571   -8804.3823    43558.111 
  132400    345.51522   -8743.1465    50.465847   -8793.6123   -2244.5941 
  132600    274.38003   -8746.2032    40.075862    -8786.279    6282.2433 
  132800    283.41714   -8755.7341     41.39582   -8797.1299   -182.16339 
  133000    298.52193   -8752.3758    43.602022   -8795.9778    6833.5389 
  133200    364.56215   -8734.5641    53.247836   -8787.8119    15655.042 
  133400    282.87644   -8750.7499    41.316846   -8792.0668   -10470.433 
  133600    318.88832    -8757.155     46.57673   -8803.7318    945.46551 
  133800    369.48835   -8739.8063    53.967355   -8793.7737   -12050.962 
  134000    297.04829   -8757.2802    43.386782    -8800.667   -7147.7256 
  134200    279.72205   -8753.0944    40.856116   -8793.9505   -9057.1955 
  134400    348.11157   -8740.1465    50.845069   -8790.9916    4815.5136 
  134600    276.88002   -8753.4985    40.441011   -8793.9395    23837.344 
  134800    265.21659   -8757.3097    38.737454   -8796.0471    9075.2836 
  135000    289.55725   -8740.7975    42.292642   -8783.0902    36957.097 
  135200    326.60841    -8747.513    47.704323   -8795.2173   -8204.5841 
  135400    286.82134   -8756.0217    41.893037   -8797.9147   -22250.102 
  135600    327.68094   -8748.7631    47.860978   -8796.6241    15070.224 
  135800    320.02492   -8738.5449    46.742742   -8785.2876    33006.474 
  136000    288.36779    -8756.238     42.11891   -8798.3569    -26195.37 
  136200    297.57363   -8745.1958    43.463513   -8788.6593   -23898.369 
  136400    256.09237   -8760.1311    37.404773   -8797.5359    28281.919 
  136600    297.50745   -8757.4288    43.453846   -8800.8827    16909.868 
  136800    363.73732   -8749.3102    53.127362   -8802.4375    25487.219 
  137000    313.60072   -8745.6984    45.804425   -8791.5028   -21322.724 
  137200    362.04664    -8755.748    52.880421   -8808.6284   -5975.6181 
  137400    264.71853   -8760.2888    38.664707   -8798.9535   -7636.3899 
  137600     354.5484   -8743.3613    51.785231   -8795.1465   -18524.316 
  137800     293.5235   -8755.2392    42.871953   -8798.1112   -8388.9762 
  138000    289.86321   -8761.6347    42.337331    -8803.972    2099.8353 
  138200    308.18732   -8749.1944    45.013746   -8794.2081    4721.7031 
  138400    280.53333   -8748.9265    40.974611   -8789.9011   -13904.768 
  138600    264.65494   -8765.9357    38.655418   -8804.5911    2648.5799 
  138800    297.94881   -8754.6499    43.518311   -8798.1682    36258.979 
  139000    358.76841     -8749.63    52.401603   -8802.0316   -22263.988 
  139200    408.69347   -8786.6627    59.693643   -8846.3563    4612.0461 
  139400    314.93036   -8823.7295    45.998632   -8869.7281    15522.691 
  139600    318.53748   -8835.4367    46.525487   -8881.9622    32784.423 
  139800    378.04957   -8817.5057    55.217804   -8872.7235   -5494.9018 
  140000    298.69743   -8817.2399    43.627655   -8860.8676    24523.151 
  140200    277.77889   -8832.5152      40.5723   -8873.0875    19682.976 
  140400    260.53327   -8823.0616    38.053409    -8861.115   -6592.4507 
  140600     335.4999   -8818.4698    49.003012   -8867.4728    16800.008 
  140800    276.33356   -8828.3532    40.361195   -8868.7144   -13440.803 
  141000     306.9235   -8822.7422    44.829153   -8867.5714    5543.0946 
  141200    268.02452   -8823.3794     39.14758   -8862.5269    -9122.087 
  141400    257.13203   -8831.4804    37.556625   -8869.0371   -29809.047 
  141600    280.13713   -8833.2098    40.916744   -8874.1265    2496.9176 
  141800    307.50059   -8822.0364    44.913441   -8866.9498    1272.0428 
  142000    271.58542      -8830.1    39.667684   -8869.7677    19934.257 
  142200    255.46306   -8831.1811    37.312856    -8868.494   -10309.612 
  142400    308.19887   -8820.8299    45.015432   -8865.8453   -28184.199 
  142600    260.93424   -8828.7366    38.111975   -8866.8486    28844.912 
  142800    352.12353   -8810.0827    51.431054   -8861.5137   -6316.3796 
  143000    333.56273   -8822.0219     48.72007   -8870.7419   -8412.1203 
  143200    316.21371   -8827.6251    46.186078   -8873.8112   -19990.126 
  143400    371.43684   -8814.1382    54.251951   -8868.3902   -20217.411 
  143600    321.96526   -8821.9976    47.026147   -8869.0238   -8300.6217 
  143800    333.71625   -8826.5005    48.742493    -8875.243   -25154.344 
  144000    320.79542   -8807.5098    46.855281   -8854.3651    -38176.83 
  144200    310.98894   -8822.9042    45.422949   -8868.3271    34842.992 
  144400     272.2361   -8825.3666    39.762721   -8865.1293   -43127.096 
  144600    372.31446   -8805.1007    54.380135   -8859.4808    20527.702 
  144800    343.65339   -8821.0674    50.193908   -8871.2613    10377.451 
  145000    295.06478   -8823.9926    43.097071   -8867.0897   -25428.344 
  145200     264.5303   -8832.6665    38.637215   -8871.3037    11250.448 
  145400     272.1706   -8822.8226    39.753154   -8862.5757    3608.5731 
  145600     308.6694   -8820.4741    45.084157   -8865.5582   -1954.8144 
  145800    252.09966   -8830.2393    36.821599   -8867.0609   -40140.522 
  146000    301.90361   -8834.1231    44.095948    -8878.219   -3019.0046 
  146200    329.75866   -8818.5581    48.164448   -8866.7225    27401.827 
  146400    279.58167   -8826.2998    40.835613   -8867.1354    11918.966 
  146600    236.56842   -8841.7315    34.553111   -8876.2846   -10740.471 
  146800    327.03397   -8823.1071    47.766481   -8870.8735    1581.9974 
  147000     294.1399   -8815.4967    42.961984   -8858.4587    40012.247 
  147200    305.06082   -8829.9183    44.557089   -8874.4754   -17379.368 
  147400    272.97644   -8828.4826    39.870855   -8868.3534    7934.2318 
  147600    290.97034   -8817.6809    42.499038     -8860.18   -21313.956 
  147800    296.75042   -8824.2143    43.343274   -8867.5576    9445.6306 
  148000    258.67624   -8826.6616    37.782173   -8864.4438    4812.6702 
  148200    375.91208   -8809.0953    54.905603   -8864.0009    3816.8324 
  148400     269.3745   -8826.0877    39.344757   -8865.4325    18563.356 
  148600    289.94366   -8826.6176    42.349082   -8868.9667    21672.953 
  148800    342.94125   -8809.5005    50.089893   -8859.5904    23335.596 
  149000    259.84564   -8825.1459    37.952974   -8863.0989    9104.2193 
  149200    304.21654   -8821.6547    44.433774   -8866.0885    29743.693 
  149400    276.62471   -8820.4587     40.40372   -8860.8624   -34490.315 
  149600    288.28281   -8828.7725    42.106498   -8870.8789    18425.125 
  149800    322.55357    -8813.987    47.112075    -8861.099    2103.4087 
  150000    269.81001   -8834.6741    39.408367   -8874.0825   -4049.8757 
  150200     271.4539   -8822.6104    39.648473   -8862.2588   -22724.513 
  150400    339.73461   -8819.0191    49.621532   -8868.6406    10050.638 
  150600    234.97903   -8835.1579    34.320964   -8869.4788    -27123.08 
  150800    310.49303   -8815.2713    45.350517   -8860.6218    18696.129 
  151000    297.04513   -8825.5712     43.38632   -8868.9576    2237.0393 
  151200    251.31457   -8831.3788    36.706929   -8868.0857   -3599.2401 
  151400    323.32807   -8815.6462    47.225199   -8862.8714    40913.304 
  151600    289.16461   -8828.7225    42.235295   -8870.9578   -31060.381 
  151800    309.80863   -8817.0791    45.250553   -8862.3297    14765.843 
  152000    348.52701   -8817.5648    50.905748   -8868.4705    15473.869 
  152200     256.6096   -8825.9286    37.480319   -8863.4089   -13966.836 
  152400    346.27992   -8810.6221    50.577538   -8861.1997    37769.496 
  152600    236.03506   -8831.2496    34.475209   -8865.7248     1682.447 
  152800    304.84256   -8819.1472     44.52521   -8863.6724    9194.4604 
  153000    307.29631   -8819.5896    44.883605   -8864.4732   -13167.944 
  153200    280.45389   -8834.9634     40.96301   -8875.9264   -4506.5349 
  153400     268.5926   -8821.8375    39.230552    -8861.068    9351.9897 
  153600    268.02893   -8818.3389    39.148224   -8857.4871    3206.5664 
  153800    299.57977    -8822.194     43.75653   -8865.9505     -8000.51 
  154000     344.3213   -8821.8997    50.291463   -8872.1912    37211.464 
  154200     275.1722   -8824.1822    40.191567   -8864.3737   -13013.334 
  154400    371.46974   -8806.5265    54.256755   -8860.7833   -51348.167 
  154600    306.25106   -8824.7125    44.730935   -8869.4435    25632.568 
  154800    358.95956   -8821.8667    52.429524   -8874.2962    -1358.581 
  155000    307.89164   -8823.2565    44.970558   -8868.2271     9539.244 
  155200    245.32904    -8832.989    35.832685   -8868.8217   -21068.839 
  155400    275.24838   -8814.1219    40.202694   -8854.3246    5714.8338 
  155600    311.31908    -8821.366    45.471169   -8866.8372   -24424.033 
  155800     308.1722   -8826.1799    45.011537   -8871.1914    19524.335 
  156000    291.57303   -8821.0525    42.587067   -8863.6396   -13586.925 
  156200    361.16577    -8803.501    52.751761   -8856.2527    23134.901 
  156400    286.86999   -8825.7553    41.900143   -8867.6555   -21323.313 
  156600    281.77937    -8827.562    41.156609   -8868.7186    5321.0115 
  156800    369.66931    -8810.962    53.993786   -8864.9558     13241.11 
  157000    294.61121   -8820.0395    43.030823   -8863.0703   -32121.747 
  157200    271.06534    -8825.111    39.591721   -8864.7027   -12703.762 
  157400     230.9229   -8825.2799    33.728528   -8859.0084    27306.191 
  157600    337.17777   -8811.2136    49.248081   -8860.4617    36553.318 
  157800    278.79658   -8825.5721    40.720943    -8866.293   -33734.183 
  158000    313.34248    -8827.638    45.766706   -8873.4047   -5717.4897 
  158200    289.86835   -8816.8637    42.338082   -8859.2018     16565.93 
  158400    278.38631   -8828.7879    40.661018   -8869.4489    11469.081 
  158600    314.21139    -8830.897    45.893618   -8876.7906   -903.75767 
  158800    364.30714   -8816.4812    53.210589   -8869.6918   -4357.4954 
  159000    318.64442   -8826.6133    46.541106   -8873.1544   -6993.2009 
  159200    258.81605    -8832.796    37.802593   -8870.5986    -23329.05 
  159400    286.38383   -8818.4152    41.829134   -8860.2443    5465.2084 
  159600    272.74721    -8817.532    39.837373   -8857.3694   -22709.987 
  159800    309.71473   -8832.4751    45.236838    -8877.712    29008.013 
  160000    282.77212   -8821.0506     41.30161   -8862.3522    8649.5412 
  160200    306.48157   -8819.8571    44.764604   -8864.6217    -21566.07 
  160400    257.97264   -8824.4793    37.679405   -8862.1587   -5676.4526 
  160600    314.00776   -8816.0575    45.863877   -8861.9214   -24224.033 
  160800    248.97039   -8817.8272    36.364539   -8854.1918    24224.629 
  161000    336.35407   -8824.4038    49.127772   -8873.5316    13833.543 
  161200    317.90613   -8823.2076    46.433271   -8869.6409   -16991.978 
  161400    290.45065   -8815.4133    42.423133   -8857.8365    14969.846 
  161600    280.08366   -8829.4446    40.908934   -8870.3535   -26395.653 
  161800    271.14774   -8831.5568    39.603755   -8871.1605   -27580.332 
  162000    308.77013   -8814.3365     45.09887   -8859.4354    7717.8785 
  162200    262.55812   -8826.3403    38.349158   -8864.6894    14416.816 
  162400    290.05347    -8824.657    42.365121   -8867.0221    -22637.78 
  162600    309.88382   -8812.3343    45.261535   -8857.5959   -30737.056 
  162800    303.50712   -8825.1002    44.330157   -8869.4303   -18415.147 
  163000    284.56626    -8827.723     41.56366   -8869.2866    6557.9145 
  163200    302.94226   -8812.2952    44.247654   -8856.5428     -6821.23 
  163400    314.33287   -8809.9054    45.911363   -8855.8168   -100.60438 
  163600    287.08885   -8824.1728     41.93211   -8866.1049   -7982.2256 
  163800    266.98396   -8832.0267    38.995594   -8871.0223   -24874.031 
  164000    318.11579   -8814.1206    46.463894   -8860.5845    39805.646 
  164200    326.83155    -8825.508    47.736916   -8873.2449    53302.858 
  164400    277.95901   -8827.6083    40.598608   -8868.2069   -20585.042 
  164600    300.69123   -8823.5988    43.918869   -8867.5177    12055.671 
  164800    339.14656   -8824.3553    49.535642    -8873.891    6124.5629 
  165000    248.32854   -8836.1928     36.27079   -8872.4636     7654.519 
  165200    339.97832   -8819.3105    49.657129   -8868.9676   -3542.1921 
  165400     289.0408   -8822.2635     42.21721   -8864.4807    16117.681 
  165600     245.4659   -8837.9987    35.852674   -8873.8514     14244.01 
  165800    284.35584   -8821.9641    41.532927   -8863.4971   -18772.276 
  166000    335.98644     -8820.65    49.074076   -8869.7241     485.8622 
  166200    248.71944    -8833.697    36.327885   -8870.0249    -18138.01 
  166400    349.17975   -8819.1584    51.001088   -8870.1595    13804.383 
  166600    321.84198   -8817.0677     47.00814   -8864.0758   -15896.827 
  166800    250.23489   -8830.3823    36.549232   -8866.9315    18024.755 
  167000    301.66007   -8824.0212    44.060377   -8868.0816   -7023.9987 
  167200    232.49549   -8824.8792     33.95822   -8858.8374    7231.9563 
  167400    294.38504   -8814.7833    42.997789   -8857.7811     12827.14 
  167600    341.00257   -8818.8747    49.806731   -8868.6814   -7736.8985 
  167800    258.22347   -8833.2347    37.716041   -8870.9507   -12354.951 
  168000    277.72507   -8818.4974    40.564438   -8859.0619    21104.677 
  168200    274.88759   -8823.8468    40.149997   -8863.9968    2676.7769 
  168400    295.09898   -8828.3177    43.102067   -8871.4198    22299.699 
  168600    381.23869     -8812.63    55.683606   -8868.3136    6438.9591 
  168800    282.72045   -8825.6697    41.294062   -8866.9638   -19052.993 
  169000    289.23804   -8827.7302    42.246019   -8869.9762     22177.25 
  169200    363.69556   -8807.0109    53.121261   -8860.1322   -22495.626 
  169400    337.92664   -8819.5973    49.357461   -8868.9548    9899.9621 
  169600    310.13794   -8828.2622    45.298651   -8873.5608   -22930.323 
  169800    314.99107   -8813.9123    46.007498   -8859.9198    28112.162 
  170000    298.76089    -8817.204    43.636924   -8860.8409    27383.782 
  170200    346.08365   -8823.2843    50.548871   -8873.8332    43322.876 
  170400    268.67043    -8835.665    39.241921   -8874.9069    33952.263 
  170600    257.83749   -8830.9902    37.659664   -8868.6499    9676.8551 
  170800    294.88971   -8818.5933      43.0715   -8861.6648   -58764.333 
  171000    273.45967   -8823.0417    39.941436   -8862.9831    3005.3526 
  171200    251.97332   -8834.6925    36.803146   -8871.4956    15574.064 
  171400    315.75902   -8818.3166    46.119665   -8864.4362   -4218.0688 
  171600    292.99163   -8822.9817    42.794267   -8865.7759     18511.99 
  171800    287.14192   -8833.9615     41.93986   -8875.9014    2929.8468 
  172000    309.52179   -8815.1689    45.208657   -8860.3775    -9240.662 
  172200    320.19372   -8826.0897    46.767397   -8872.8571   -20920.098 
  172400    327.37261   -8823.1088    47.815942   -8870.9248    25104.511 
  172600    316.56262   -8810.6561    46.237039   -8856.8932    23380.501 
  172800    291.71835   -8829.1311    42.608293   -8871.7394   -17640.211 
  173000    298.72283   -8822.3955    43.631365   -8866.0269    27036.764 
  173200    339.55089   -8818.9943    49.594698    -8868.589    18940.553 
  173400    249.46122   -8835.0196    36.436228   -8871.4558   -2655.2978 
  173600    289.72023   -8822.5292    42.316448   -8864.8456    20239.711 
  173800    314.32468   -8815.3703    45.910167   -8861.2804    5782.8827 
  174000    268.07071   -8831.6829    39.154325   -8870.8373   -5443.7311 
  174200     315.8261    -8824.031    46.129464   -8870.1604    6398.3985 
  174400    344.34772   -8816.2077    50.295322    -8866.503   -19973.055 
  174600     280.7187   -8835.5186    41.001686   -8876.5203   -19287.582 
  174800    252.11706   -8837.4526     36.82414   -8874.2767      895.759 
  175000    288.40298   -8822.0561    42.124051   -8864.1801   -8755.5945 
  175200    297.26301   -8819.3657    43.418144   -8862.7838    772.20147 
  175400    249.65811   -8836.2043    36.464986   -8872.6693    162.37998 
  175600    265.36042   -8830.9011    38.758461   -8869.6595   -7010.9137 
  175800    313.23213   -8818.6333    45.750589   -8864.3839       -17856 
  176000     300.1173   -8823.7485     43.83504   -8867.5836    8288.4245 
  176200    246.41524   -8843.6636    35.991334    -8879.655   -8682.3977 
  176400    296.35771   -8830.9821    43.285917   -8874.2681    -25153.81 
  176600    339.00135   -8816.9693    49.514433   -8866.4838   -5931.9667 
  176800    258.58777   -8827.0826     37.76925   -8864.8518    899.98644 
  177000    251.47338   -8832.8721    36.730125   -8869.6022   -16444.624 
  177200    316.71726   -8820.8366    46.259626   -8867.0962   -21833.819 
  177400    264.77215   -8828.8277    38.672539   -8867.5003    -18561.19 
  177600    267.70458   -8829.5274    39.100848   -8868.6283   -1409.2833 
  177800    329.78628   -8816.1706    48.168482   -8864.3391   -12452.211 
  178000    270.44432   -8832.3053    39.501014   -8871.8064   -24896.468 
  178200    301.70142   -8829.0447    44.066416   -8873.1111    3726.5683 
  178400     309.6017   -8823.9454    45.220329   -8869.1658   -26200.713 
  178600    309.82501   -8812.0386    45.252946   -8857.2915   -10060.228 
  178800    280.90464   -8829.6489    41.028846   -8870.6778   -13895.411 
  179000     311.7006   -8827.9791    45.526893    -8873.506     -640.025 
  179200    274.76394   -8808.1731    40.131937   -8848.3051   -25688.281 
  179400    329.77991   -8820.2931    48.167552   -8868.4607    -48881.26 
[...]
  950000    277.75162   -8809.4369    40.568317   -8850.0052    41091.471 
  950200    295.92373   -8824.0996    43.222529   -8867.3221   -13584.127 
  950400    246.94337   -8827.3312    36.068472   -8863.3996   -20808.396 
  950600    370.63188   -8809.6837    54.134378   -8863.8181   -19120.454 
  950800       319.78   -8828.4478    46.706969   -8875.1547    12891.172 
  951000    311.29958   -8826.4146    45.468321   -8871.8829    -8750.499 
  951200    285.77505   -8814.7241    41.740217   -8856.4643   -9599.7275 
  951400    285.30283   -8831.6847    41.671244   -8873.3559   -8751.5353 
  951600    276.25317   -8827.3822    40.349454   -8867.7317   -25170.428 
  951800    273.94056   -8821.0709    40.011674   -8861.0826    16877.008 
  952000    300.68592   -8820.3844    43.918093   -8864.3025    20258.983 
  952200    301.51534   -8822.1791    44.039238   -8866.2184    21186.633 
  952400    276.47905   -8828.9076    40.382445   -8869.2901      31743.3 
  952600    318.16489   -8819.2722    46.471067   -8865.7433    22157.377 
  952800    290.73076   -8829.5056    42.464045   -8871.9696   -27122.009 
  953000    286.31666   -8823.4636    41.819324   -8865.2829   -19582.101 
  953200    303.74454   -8823.5652    44.364835   -8867.9301   -31703.549 
  953400    289.43082   -8827.9262    42.274177   -8870.2004   -13263.163 
  953600     392.5043   -8812.4752    57.329057   -8869.8042    6632.5337 
  953800    277.37059   -8833.0468    40.512663   -8873.5595    7139.8978 
  954000    292.90877   -8827.4247    42.782165   -8870.2069   -20777.521 
  954200    340.56541   -8817.3999     49.74288   -8867.1428    -18506.75 
  954400    323.77662   -8808.5737    47.290713   -8855.8644   -34176.445 
  954600    262.36313    -8828.191    38.320678   -8866.5117   -16491.651 
  954800    329.32063    -8819.203     48.10047   -8867.3035    14155.539 
  955000    279.70885   -8814.6427    40.854189   -8855.4969   -472.39518 
  955200     265.2192   -8823.3229    38.737835   -8862.0607   -7831.0104 
  955400    303.09508   -8825.6249    44.269975   -8869.8948    4879.0488 
  955600    362.75252   -8811.6566    52.983521   -8864.6401     8883.652 
  955800    276.39601   -8825.3906    40.370317   -8865.7609   -1167.5355 
  956000     301.8277   -8830.9863    44.084861   -8875.0711     18362.52 
  956200    272.66965   -8813.8631    39.826045   -8853.6892    29074.829 
  956400    300.16682   -8821.2882    43.842273   -8865.1305    489.93414 
  956600    274.24368   -8831.0775    40.055947   -8871.1335    38192.978 
  956800    341.56393   -8815.8849    49.888722   -8865.7736    12017.291 
  957000     301.3872   -8823.1654    44.020522   -8867.1859    25915.577 
  957200    254.36085   -8829.5068    37.151867   -8866.6587    9692.8488 
  957400    298.33322   -8816.6407    43.574459   -8860.2152    -170.4877 
  957600    247.64335   -8831.2086    36.170711   -8867.3793    10491.824 
  957800    344.77043   -8823.6235    50.357063   -8873.9806   -3514.5518 
  958000    341.42505   -8815.0296    49.868438    -8864.898   -34878.561 
  958200    336.52598   -8804.0024    49.152881   -8853.1552   -7014.1064 
  958400    241.89366   -8825.8991    35.330914     -8861.23   -4372.4765 
  958600    273.89679   -8828.9858    40.005281   -8868.9911   -18381.229 
  958800     361.2501   -8810.2549    52.764078   -8863.0189    18325.455 
  959000    301.08061   -8823.3167    43.975741   -8867.2925     7752.942 
  959200    332.60561   -8825.0514    48.580274   -8873.6317    7332.2254 
  959400    321.79975    -8809.728    47.001972     -8856.73   -19254.978 
  959600    338.88424   -8820.6334    49.497328   -8870.1307   -2016.6454 
  959800    277.69054   -8828.3979    40.559394   -8868.9573    8388.9327 
  960000    339.95301   -8811.0681    49.653432   -8860.7216   -12440.171 
  960200    269.61823   -8820.9579    39.380356   -8860.3382   -20024.303 
  960400    278.28724   -8828.4955    40.646548    -8869.142    12626.422 
  960600    250.18898   -8815.3742    36.542525   -8851.9167    25222.075 
  960800    321.53118    -8822.141    46.962746   -8869.1038    15841.233 
  961000     288.2825   -8829.8156    42.106453   -8871.9221   -7237.2145 
  961200    376.04452   -8814.7178    54.924946   -8869.6428   -9204.7985 
  961400    279.53666    -8828.628    40.829039    -8869.457   -18766.455 
  961600    302.51104   -8826.9188    44.184669   -8871.1034    38.603451 
  961800    310.91355   -8813.0196    45.411938   -8858.4316   -39124.413 
  962000    284.76088    -8829.584    41.592086   -8871.1761   -4123.6227 
  962200    346.27014   -8826.1336     50.57611   -8876.7097    26411.225 
  962400    355.77421   -8815.2835    51.964271   -8867.2478    28740.839 
  962600    239.27279   -8830.1805    34.948111   -8865.1286   -27453.848 
  962800    309.11806   -8824.1158    45.149688   -8869.2654    8724.2172 
  963000    337.71219   -8811.6309    49.326139    -8860.957    22633.958 
  963200    266.20996   -8833.8624    38.882544    -8872.745   -20570.781 
  963400    271.55943   -8826.5486    39.663886   -8866.2125    42253.995 
  963600    344.18419    -8813.661    50.271437   -8863.9324   -767.33828 
  963800    330.94961   -8827.1442    48.338398   -8875.4826    27492.048 
  964000    296.32256   -8824.7152    43.280783    -8867.996   -7308.2865 
  964200    363.67639   -8810.7416    53.118462   -8863.8601    -10240.65 
  964400    265.54927   -8830.8346    38.786045   -8869.6206    6587.0903 
  964600    347.46107   -8820.7345    50.750057   -8871.4845    10929.112 
  964800    297.37631   -8818.2439    43.434692   -8861.6786    29057.157 
  965000    301.88788   -8821.6791    44.093651   -8865.7728   -17101.894 
  965200    294.44867   -8822.6362    43.007082   -8865.6433    1881.5859 
  965400     247.6863   -8836.5133    36.176985   -8872.6903    18398.665 
  965600    324.32093   -8822.0762    47.370215   -8869.4464    21575.024 
  965800    297.51472   -8824.1668    43.454909   -8867.6218    23032.397 
  966000    289.87083   -8827.7314    42.338444   -8870.0698   -14886.063 
  966200    322.76673   -8812.1214    47.143209   -8859.2646    25948.109 
  966400    259.85298   -8827.6502    37.954046   -8865.6043    24293.991 
  966600    288.29718   -8829.9953    42.108597   -8872.1039    32613.926 
  966800    360.77417   -8822.4193    52.694564   -8875.1139   -29181.557 
  967000    320.22003   -8816.1644    46.771238   -8862.9356   -24298.964 
  967200    318.21698   -8832.1104    46.478675    -8878.589   -11258.345 
  967400    279.49002    -8823.009    40.822226   -8863.8312    24454.786 
  967600    360.42903   -8817.8673    52.644153   -8870.5114    9428.0216 
  967800    262.51395   -8828.3574    38.342707   -8866.7001    13861.057 
  968000    298.19478   -8824.7872    43.554238   -8868.3414    14588.868 
  968200    320.33561   -8823.1298     46.78812   -8869.9179   -1828.3957 
  968400     323.7503   -8819.9891    47.286869    -8867.276   -6197.1065 
  968600    321.90077   -8813.9928    47.016727   -8861.0095    21117.042 
  968800     285.6568    -8829.893    41.722944    -8871.616   -4120.8096 
  969000     316.9903     -8821.13    46.299506   -8867.4295     17946.07 
  969200    320.98111   -8807.1806    46.882402    -8854.063   -2743.8118 
  969400    313.24421     -8822.72    45.752353   -8868.4724   -16472.565 
  969600    270.81844   -8830.5314    39.555659   -8870.0871   -18177.925 
  969800    312.11266   -8812.5476    45.587079   -8858.1347   -18747.346 
  970000      277.444   -8822.0015    40.523385   -8862.5248     18054.49 
  970200    329.36405   -8827.0383    48.106812   -8875.1451    36796.394 
  970400      315.119   -8825.3995    46.026184   -8871.4256    12548.829 
  970600    267.05299   -8839.5762    39.005677   -8878.5819    35790.868 
  970800    296.97291   -8824.4527    43.375772   -8867.8284    13145.872 
  971000    298.16817   -8820.2286    43.550351    -8863.779    32550.086 
  971200    268.92573   -8823.2717     39.27921   -8862.5509    3761.8861 
  971400    327.44152   -8820.6846    47.826007   -8868.5106   -15658.811 
  971600    262.35509   -8827.0193    38.319503   -8865.3388   -6288.8408 
  971800     305.1223   -8832.4351     44.56607   -8877.0012     27675.92 
  972000    371.39066   -8814.7059    54.245206   -8868.9511    9465.2197 
  972200    217.07762   -8829.2381     31.70629   -8860.9444   -2589.7019 
  972400    261.10309   -8823.3259    38.136637   -8861.4625    1662.2723 
  972600    343.51069    -8814.917    50.173065   -8865.0901     13420.64 
  972800    286.55808   -8829.6218    41.854585   -8871.4763   -18389.116 
  973000    274.75994   -8815.1208    40.131352   -8855.2522    7450.1181 
  973200    291.88972   -8819.5461    42.633323   -8862.1794    4882.2269 
  973400    251.90986   -8825.5583    36.793876   -8862.3521    19550.001 
  973600    344.74897    -8813.594    50.353928    -8863.948   -597.28995 
  973800    259.39056   -8826.7908    37.886505   -8864.6773   -36823.413 
  974000    277.05137   -8830.6682    40.466038   -8871.1343   -7673.3662 
  974200    372.15345   -8810.5082    54.356618   -8864.8648     8230.707 
  974400    301.12473   -8816.4495    43.982186   -8860.4317     16692.81 
  974600    273.00379   -8827.2237     39.87485   -8867.0985   -28846.885 
  974800    289.75691   -8820.3667    42.321806   -8862.6885    24521.994 
  975000    301.82481   -8830.2858    44.084439   -8874.3703     26757.51 
  975200    287.45774   -8830.3468    41.985989   -8872.3328   -4581.7142 
  975400    319.14593   -8822.0403    46.614357   -8868.6547   -16053.172 
  975600    343.45194   -8818.9298    50.164484   -8869.0943    10238.203 
  975800    266.77553   -8837.3856    38.965151   -8876.3508   -25771.571 
  976000    306.56245   -8819.4438    44.776418   -8864.2202    995.33351 
  976200     323.8876   -8820.0362    47.306923   -8867.3432   -6841.4966 
  976400    258.44404   -8835.6794    37.748256   -8873.4276   -8695.1566 
  976600    244.40372   -8824.4326    35.697533   -8860.1302   -5989.4853 
  976800    359.07329   -8818.6866    52.446135   -8871.1327   -3102.2096 
  977000    260.68839   -8837.3347    38.076066   -8875.4107    4911.0955 
  977200    261.95171   -8828.1281    38.260587   -8866.3887    172.56613 
  977400    315.07465   -8825.5644    46.019707   -8871.5841   -15610.859 
  977600     270.9026   -8824.8382    39.567951   -8864.4061    17805.382 
  977800     271.7797    -8814.959     39.69606   -8854.6551    11146.947 
  978000    271.20354   -8829.1656    39.611905   -8868.7775    -1695.315 
  978200    379.90169   -8814.5006    55.488323    -8869.989   -33317.005 
  978400    338.09715    -8820.032    49.382366   -8869.4144   -21072.041 
  978600    331.28025   -8828.2462    48.386691   -8876.6329    1271.4658 
  978800    399.31116   -8807.6326    58.323265   -8865.9559    20043.463 
  979000    315.15762   -8820.0949    46.031824   -8866.1267    15373.809 
  979200     291.5856   -8824.2162    42.588903   -8866.8051   -1063.6588 
  979400    340.98758   -8813.2063    49.804541   -8863.0109   -48189.142 
  979600    250.24207   -8825.8894     36.55028   -8862.4397   -30086.788 
  979800     326.3501    -8822.167    47.666595   -8869.8336    3864.9871 
  980000    228.70006   -8824.9846    33.403861   -8858.3884   -7845.6367 
  980200    270.29965   -8834.5109    39.479883   -8873.9908    15905.378 
  980400    315.70094   -8818.9783    46.111182   -8865.0895   -17532.728 
  980600    268.38565   -8829.3742    39.200326   -8868.5745   -37166.711 
  980800     268.6279   -8836.7236    39.235708   -8875.9593   -20696.522 
  981000    277.54238   -8821.9889    40.537754   -8862.5266   -20933.704 
  981200      315.022   -8826.5684    46.012017   -8872.5804    5781.9384 
  981400    287.95776   -8832.1537    42.059021   -8874.2127   -814.74449 
  981600    310.50518   -8817.8594    45.352291   -8863.2117     5030.677 
  981800    284.67998   -8830.3498    41.580271   -8871.9301   -904.94669 
  982000    329.39046   -8811.0703     48.11067    -8859.181   -8688.7273 
  982200    334.06427   -8826.2176    48.793325   -8875.0109    3215.7727 
  982400    306.10717   -8826.7846    44.709919   -8871.4945    49860.092 
  982600    373.44579   -8807.7608    54.545377   -8862.3061    8963.1742 
  982800    251.78028   -8820.4643    36.774951   -8857.2393    13675.655 
  983000    255.12781    -8825.677     37.26389   -8862.9409   -1133.9515 
  983200    397.01619   -8808.1305    57.988062   -8866.1185    3602.9407 
  983400    306.52522   -8822.9587     44.77098   -8867.7297    2340.2592 
  983600    277.83932   -8829.5564    40.581125   -8870.1376   -5403.8235 
  983800    334.32159   -8811.0823    48.830909   -8859.9132   -5296.0915 
  984000    316.27083   -8823.1704     46.19442   -8869.3648    -8335.675 
  984200    322.72273   -8826.2341    47.136783   -8873.3709    5957.6706 
  984400    302.16608   -8821.3714    44.134284   -8865.5057    22961.121 
  984600    341.22978   -8817.7307    49.839917   -8867.5706    11344.463 
  984800    259.54473   -8821.6451    37.909023   -8859.5541   -3388.4135 
  985000    308.83413   -8830.1991    45.108218   -8875.3074   -31453.828 
  985200    275.23663    -8829.817    40.200978   -8870.0179    16953.194 
  985400    409.03094   -8813.3243    59.742934   -8873.0672   -427.79649 
  985600     296.0592   -8828.1195    43.242316   -8871.3618    17407.829 
  985800    314.17874   -8822.4779     45.88885   -8868.3668    28748.531 
  986000    335.13266   -8811.6917    48.949374   -8860.6411    19371.359 
  986200    330.40946   -8808.0433    48.259504   -8856.3028   -27735.968 
  986400    264.96338   -8827.4691     38.70047   -8866.1696    23466.987 
  986600    316.35292   -8819.2078     46.20641   -8865.4142    10599.677 
  986800    336.42051   -8812.1223    49.137477   -8861.2598    60605.076 
  987000    262.28105   -8830.7256     38.30869   -8869.0342    15603.959 
  987200    317.21143   -8819.1771    46.331804   -8865.5089   -28238.722 
  987400    289.38144   -8817.9159    42.266964   -8860.1828   -9646.1343 
  987600    278.95429   -8832.2821    40.743978    -8873.026   -16936.193 
  987800    298.77062   -8818.5673    43.638345   -8862.2057    8460.8324 
  988000     297.2882   -8823.2506    43.421823   -8866.6724    -7374.971 
  988200    237.33498   -8833.6558    34.665075   -8868.3208    -5609.672 
  988400    299.78295   -8820.0917    43.786205   -8863.8779     20522.64 
  988600    280.36214    -8827.929    40.949608   -8868.8786     628.7241 
  988800    233.24235   -8842.3108    34.067306   -8876.3781     5797.347 
  989000    275.00997   -8829.0104    40.167872   -8869.1783    7187.7417 
  989200    312.08852   -8816.1697    45.583553   -8861.7533     16206.48 
  989400    275.60033    -8824.214    40.254099   -8864.4681    7013.7079 
  989600    276.28495   -8829.8021    40.354094   -8870.1562    7450.0339 
  989800    279.62694   -8821.9532    40.842225   -8862.7954    36355.913 
  990000    282.81518   -8822.5432    41.307899   -8863.8511    25619.917 
  990200    314.23824   -8830.2272    45.897541   -8876.1247    -7626.698 
  990400    289.79256   -8832.0226    42.327012   -8874.3496    14506.604 
  990600    307.93414   -8818.0707    44.976765   -8863.0475    2020.0179 
  990800    311.21081   -8828.5487    45.455355   -8874.0041   -27291.303 
  991000    302.15469   -8828.8949    44.132621   -8873.0275    11459.856 
  991200    333.90545   -8813.8577    48.770127   -8862.6279    26330.019 
  991400    291.02984   -8830.3345    42.507729   -8872.8422     6931.267 
  991600    296.70078   -8829.5001    43.336025   -8872.8361   -7333.6352 
  991800    285.61153   -8823.4414    41.716332   -8865.1577   -25159.264 
  992000    359.10033   -8806.0102    52.450084   -8858.4603   -31511.023 
  992200    309.18259   -8822.8303    45.159114   -8867.9894   -5265.2092 
  992400    321.15972   -8825.5549    46.908489   -8872.4634    3893.2298 
  992600    288.83099   -8818.1511    42.186566   -8860.3376    5638.1952 
  992800    352.53864   -8812.9021    51.491686   -8864.3938    4485.3319 
  993000    280.38544   -8828.7684    40.953011   -8869.7214     27973.07 
  993200    285.88517   -8816.8005      41.7563   -8858.5568   -34585.719 
  993400    327.39692   -8817.4594    47.819493   -8865.2789   -19265.503 
  993600    314.03666   -8825.5098    45.868098   -8871.3779   -8480.5229 
  993800    229.62555   -8839.5114    33.539037   -8873.0505    11061.832 
  994000    293.11931   -8821.0797    42.812916   -8863.8927   -7828.4738 
  994200    314.59605   -8818.9091    45.949803   -8864.8589   -32883.543 
  994400     245.1982   -8836.2489    35.813573   -8872.0625   -1636.2696 
  994600    256.60962   -8827.7415    37.480323   -8865.2218   -4572.0009 
  994800    314.10319   -8824.3895    45.877815   -8870.2673      40714.1 
  995000    267.75062   -8833.1231    39.107573   -8872.2307   -27903.523 
  995200    263.78914   -8829.0295    38.528961   -8867.5585    34420.274 
  995400     294.9186   -8820.4605     43.07572   -8863.5362    17430.964 
  995600    308.91169   -8830.2288    45.119547   -8875.3484    29301.283 
  995800    265.88773   -8833.7288     38.83548   -8872.5642    7113.4846 
  996000    339.97016   -8817.5215    49.655937   -8867.1774    15995.029 
  996200    276.79077   -8828.5768    40.427975   -8869.0047   -2553.6702 
  996400    255.99965   -8832.6499     37.39123   -8870.0411   -8097.8706 
  996600    346.67019   -8815.1382    50.634541   -8865.7727   -18087.436 
  996800    313.90782   -8830.3401     45.84928   -8876.1893    42564.779 
  997000    289.12894    -8829.501    42.230084   -8871.7311    8448.9163 
  997200    308.28277   -8822.8864    45.027686   -8867.9141     14201.55 
  997400    280.54476   -8822.0611    40.976282   -8863.0374    9192.2744 
  997600    329.42157   -8818.0063    48.115213   -8866.1215    47840.079 
  997800    251.49959   -8821.9059    36.733953   -8858.6399   -8372.5026 
  998000    256.39244   -8829.5845    37.448601   -8867.0331    -2453.076 
  998200    335.10883   -8815.7674    48.945893   -8864.7133   -7669.2599 
  998400    329.70631   -8821.2921    48.156802   -8869.4489   -14489.712 
  998600    266.99612   -8829.4647    38.997371    -8868.462   -15209.189 
  998800    327.82874   -8820.1963    47.882566   -8868.0788    26130.581 
  999000    282.80398   -8815.7853    41.306263   -8857.0916    36930.388 
  999200    284.14299   -8825.4796    41.501837   -8866.9815   -11738.016 
  999400    310.12395    -8830.419    45.296609   -8875.7156    -43470.25 
  999600    273.28925   -8822.6449    39.916543   -8862.5614   -19895.118 
  999800    321.14622   -8818.7133    46.906518   -8865.6198    13029.273 
 1000000    253.82396   -8832.6712    37.073449   -8869.7446   -16326.525 
Loop time of 2383.98 on 8 procs for 1000000 steps with 50 atoms

Performance: 9.060 ns/day, 2.649 hours/ns, 419.467 timesteps/s
99.4% CPU use with 8 MPI tasks x no OpenMP threads

MPI task timing breakdown:
Section |  min time  |  avg time  |  max time  |%varavg| %total
---------------------------------------------------------------
Pair    | 1966.2     | 1990.4     | 2032.6     |  47.2 | 83.49
Neigh   | 0.36983    | 0.37746    | 0.38406    |   0.7 |  0.02
Comm    | 17.548     | 59.667     | 83.826     | 272.1 |  2.50
Output  | 0.073214   | 0.08018    | 0.12413    |   5.9 |  0.00
Modify  | 331.7      | 331.79     | 331.98     |   0.5 | 13.92
Other   |            | 1.645      |            |       |  0.07

Nlocal:    6.25 ave 8 max 6 min
Histogram: 7 0 0 0 0 0 0 0 0 1
Nghost:    593 ave 603 max 580 min
Histogram: 2 0 0 0 1 0 3 0 0 2
Neighs:    820.625 ave 1017 max 786 min
Histogram: 7 0 0 0 0 0 0 0 0 1

Total # of neighbors = 6565
Ave neighs/atom = 131.3
Neighbor list builds = 561
Dangerous builds = 0

Please see the log.cite file for references relevant to this simulation

Total wall time: 0:39:59
