LAMMPS (3 Mar 2020)
# Alpha
clear
units		real
dimension 3
boundary        p p p
atom_style	charge
newton on
read_data       H_13.lmp
  triclinic box = (0 0 0) to (13.552 11.7355 22.15) with tilt (-6.7755 0 0)
  2 by 2 by 2 MPI processor grid
  reading atoms ...
  161 atoms
  read_data CPU = 0.00881369 secs

timestep 0.25

# ---------- Define Interatomic Potential ---------------------
pair_style      reax/c NULL checkqeq no
pair_coeff      * * ffield.reax C H
fix             2 all qeq/reax 1 0.0 10.0 1.0e-6 reax/c

#------------ Equilibration of the system -------------------------
reset_timestep 0

dump 1 all custom 10 min.lammpstrj id type x y z

minimize 1.0e-8 1.0e-8 100000 100000
WARNING: Using 'neigh_modify every 1 delay 0 check yes' setting during minimization (../min.cpp:190)
WARNING: Total cutoff < 2*bond cutoff. May need to use an increased neighbor list skin. (../pair_reaxc.cpp:413)
Neighbor list info ...
  update every 1 steps, delay 0 steps, check yes
  max neighbors/atom: 2000, page size: 100000
  master list distance cutoff = 9.5
  ghost atom cutoff = 9.5
  binsize = 4.75, bins = 5 3 5
  2 neighbor lists, perpetual/occasional/extra = 2 0 0
  (1) pair reax/c, perpetual
      attributes: half, newton off, ghost
      pair build: half/bin/newtoff/ghost
      stencil: half/ghost/bin/3d/newtoff
      bin: standard
  (2) fix qeq/reax, perpetual, copy from (1)
      attributes: half, newton off, ghost
      pair build: copy
      stencil: none
      bin: none
Per MPI rank memory allocation (min/avg/max) = 22.43 | 23.37 | 24.36 Mbytes
Step Temp E_pair E_mol TotEng Press 
       0            0   -25516.132            0   -25516.132    87328.342 
     211            0   -29147.407            0   -29147.407    34887.604 
Loop time of 11.0182 on 8 procs for 211 steps with 161 atoms

99.3% CPU use with 8 MPI tasks x no OpenMP threads

Minimization stats:
  Stopping criterion = energy tolerance
  Energy initial, next-to-last, final = 
        -25516.1319345     -29147.4064356     -29147.4065634
  Force two-norm initial, final = 4591.82 51.5135
  Force max component initial, final = 504.288 12.1611
  Final line search alpha, max atom move = 0.00230722 0.0280584
  Iterations, force evaluations = 211 1350

MPI task timing breakdown:
Section |  min time  |  avg time  |  max time  |%varavg| %total
---------------------------------------------------------------
Pair    | 8.2806     | 8.6832     | 9.0626     |   9.3 | 78.81
Neigh   | 0          | 0          | 0          |   0.0 |  0.00
Comm    | 0.061736   | 0.43941    | 0.84094    |  41.3 |  3.99
Output  | 0.0008649  | 0.0011677  | 0.0021531  |   1.1 |  0.01
Modify  | 1.8775     | 1.8782     | 1.8789     |   0.0 | 17.05
Other   |            | 0.01624    |            |       |  0.15

Nlocal:    20.125 ave 33 max 4 min
Histogram: 2 0 1 0 1 0 0 1 0 3
Nghost:    840.375 ave 886 max 791 min
Histogram: 2 1 1 0 0 0 0 0 1 3
Neighs:    2750.25 ave 4346 max 590 min
Histogram: 2 0 0 1 1 0 0 0 1 3

Total # of neighbors = 22002
Ave neighs/atom = 136.658
Neighbor list builds = 0
Dangerous builds = 0

###
min_style cg
minimize 1.0e-8 1.0e-8 100000 100000
WARNING: Using 'neigh_modify every 1 delay 0 check yes' setting during minimization (../min.cpp:190)
WARNING: Total cutoff < 2*bond cutoff. May need to use an increased neighbor list skin. (../pair_reaxc.cpp:413)
Per MPI rank memory allocation (min/avg/max) = 22.43 | 23.37 | 24.36 Mbytes
Step Temp E_pair E_mol TotEng Press 
     211            0   -29147.407            0   -29147.407    34887.604 
     215            0   -29147.439            0   -29147.439    35158.381 
Loop time of 0.281769 on 8 procs for 4 steps with 161 atoms

99.1% CPU use with 8 MPI tasks x no OpenMP threads

Minimization stats:
  Stopping criterion = energy tolerance
  Energy initial, next-to-last, final = 
        -29147.4065634     -29147.4391528     -29147.4391581
  Force two-norm initial, final = 51.5135 87.9775
  Force max component initial, final = 12.1611 19.7652
  Final line search alpha, max atom move = 1.19259e-05 0.000235717
  Iterations, force evaluations = 4 33

MPI task timing breakdown:
Section |  min time  |  avg time  |  max time  |%varavg| %total
---------------------------------------------------------------
Pair    | 0.21525    | 0.22466    | 0.23597    |   1.7 | 79.73
Neigh   | 0          | 0          | 0          |   0.0 |  0.00
Comm    | 0.0013712  | 0.012731   | 0.022071   |   6.9 |  4.52
Output  | 0          | 0          | 0          |   0.0 |  0.00
Modify  | 0.043709   | 0.043812   | 0.043947   |   0.0 | 15.55
Other   |            | 0.0005636  |            |       |  0.20

Nlocal:    20.125 ave 32 max 4 min
Histogram: 2 0 0 2 0 0 0 0 0 4
Nghost:    874.625 ave 921 max 827 min
Histogram: 3 1 0 0 0 0 0 0 1 3
Neighs:    2735.88 ave 4219 max 582 min
Histogram: 2 0 0 2 0 0 0 0 0 4

Total # of neighbors = 21887
Ave neighs/atom = 135.944
Neighbor list builds = 0
Dangerous builds = 0

###
fix 1 all box/relax aniso 0.0
min_style cg
minimize 1.0e-8 1.0e-8 100000 100000
WARNING: Using 'neigh_modify every 1 delay 0 check yes' setting during minimization (../min.cpp:190)
WARNING: Total cutoff < 2*bond cutoff. May need to use an increased neighbor list skin. (../pair_reaxc.cpp:413)
Per MPI rank memory allocation (min/avg/max) = 22.43 | 23.37 | 24.36 Mbytes
Step Temp E_pair E_mol TotEng Press Volume 
     215            0   -29147.439            0   -29147.439    35158.381    3522.7279 
     297            0   -29163.173            0   -29163.173    2455.3418    3529.3849 
Loop time of 1.00642 on 8 procs for 82 steps with 161 atoms

99.3% CPU use with 8 MPI tasks x no OpenMP threads

Minimization stats:
  Stopping criterion = linesearch alpha is zero
  Energy initial, next-to-last, final = 
        -29147.4391581     -29163.1727386     -29163.1727386
  Force two-norm initial, final = 3997.39 554.662
  Force max component initial, final = 3536.18 384.035
  Final line search alpha, max atom move = 3.01508e-14 1.1579e-11
  Iterations, force evaluations = 82 132

MPI task timing breakdown:
Section |  min time  |  avg time  |  max time  |%varavg| %total
---------------------------------------------------------------
Pair    | 0.82748    | 0.86973    | 0.90541    |   3.2 | 86.42
Neigh   | 0          | 0          | 0          |   0.0 |  0.00
Comm    | 0.0050022  | 0.040696   | 0.082873   |  14.6 |  4.04
Output  | 0.00035529 | 0.00043192 | 0.00074088 |   0.0 |  0.04
Modify  | 0.091145   | 0.091269   | 0.091336   |   0.0 |  9.07
Other   |            | 0.004293   |            |       |  0.43

Nlocal:    20.125 ave 32 max 4 min
Histogram: 2 0 0 2 0 0 0 0 0 4
Nghost:    874.625 ave 921 max 827 min
Histogram: 3 1 0 0 0 0 0 0 1 3
Neighs:    2736.12 ave 4220 max 582 min
Histogram: 2 0 0 2 0 0 0 0 0 4

Total # of neighbors = 21889
Ave neighs/atom = 135.957
Neighbor list builds = 0
Dangerous builds = 0

unfix 1
###
min_style cg
minimize 1.0e-8 1.0e-8 100000 100000
WARNING: Using 'neigh_modify every 1 delay 0 check yes' setting during minimization (../min.cpp:190)
WARNING: Total cutoff < 2*bond cutoff. May need to use an increased neighbor list skin. (../pair_reaxc.cpp:413)
Per MPI rank memory allocation (min/avg/max) = 22.43 | 23.37 | 24.36 Mbytes
Step Temp E_pair E_mol TotEng Press 
     297            0   -29163.173            0   -29163.173    2455.3418 
     409            0     -29171.2            0     -29171.2    34737.013 
Loop time of 7.14141 on 8 procs for 112 steps with 161 atoms

99.2% CPU use with 8 MPI tasks x no OpenMP threads

Minimization stats:
  Stopping criterion = energy tolerance
  Energy initial, next-to-last, final = 
        -29163.1727386      -29171.199357      -29171.199511
  Force two-norm initial, final = 362.631 99.8613
  Force max component initial, final = 44.6093 27.8232
  Final line search alpha, max atom move = 0.000541491 0.015066
  Iterations, force evaluations = 112 877

MPI task timing breakdown:
Section |  min time  |  avg time  |  max time  |%varavg| %total
---------------------------------------------------------------
Pair    | 5.4968     | 5.7459     | 5.973      |   8.0 | 80.46
Neigh   | 0          | 0          | 0          |   0.0 |  0.00
Comm    | 0.056321   | 0.28362    | 0.53225    |  35.9 |  3.97
Output  | 0.00044133 | 0.00056217 | 0.0010409  |   0.0 |  0.01
Modify  | 1.1008     | 1.1012     | 1.1016     |   0.0 | 15.42
Other   |            | 0.01009    |            |       |  0.14

Nlocal:    20.125 ave 32 max 4 min
Histogram: 2 0 0 2 0 0 0 0 0 4
Nghost:    866.625 ave 916 max 818 min
Histogram: 3 0 1 0 0 0 0 0 1 3
Neighs:    2733 ave 4215 max 581 min
Histogram: 2 0 0 2 0 0 0 0 0 4

Total # of neighbors = 21864
Ave neighs/atom = 135.801
Neighbor list builds = 0
Dangerous builds = 0

###
fix 1 all box/relax aniso 0.0
min_style cg
minimize 1.0e-8 1.0e-8 100000 100000
WARNING: Using 'neigh_modify every 1 delay 0 check yes' setting during minimization (../min.cpp:190)
WARNING: Total cutoff < 2*bond cutoff. May need to use an increased neighbor list skin. (../pair_reaxc.cpp:413)
Per MPI rank memory allocation (min/avg/max) = 22.43 | 23.37 | 24.36 Mbytes
Step Temp E_pair E_mol TotEng Press Volume 
     409            0     -29171.2            0     -29171.2    34737.013    3529.3849 
     471            0   -29182.757            0   -29182.757    6823.6431     3534.677 
Loop time of 0.818619 on 8 procs for 62 steps with 161 atoms

99.2% CPU use with 8 MPI tasks x no OpenMP threads

Minimization stats:
  Stopping criterion = energy tolerance
  Energy initial, next-to-last, final = 
         -29171.199511      -29182.757391     -29182.7573911
  Force two-norm initial, final = 3865.29 757.133
  Force max component initial, final = 3359.15 550.951
  Final line search alpha, max atom move = 4.56461e-14 2.51488e-11
  Iterations, force evaluations = 62 108

MPI task timing breakdown:
Section |  min time  |  avg time  |  max time  |%varavg| %total
---------------------------------------------------------------
Pair    | 0.67082    | 0.70471    | 0.73568    |   3.3 | 86.09
Neigh   | 0          | 0          | 0          |   0.0 |  0.00
Comm    | 0.004807   | 0.035628   | 0.069505   |  14.6 |  4.35
Output  | 0.00025215 | 0.0003235  | 0.00060906 |   0.0 |  0.04
Modify  | 0.074318   | 0.074383   | 0.074451   |   0.0 |  9.09
Other   |            | 0.003574   |            |       |  0.44

Nlocal:    20.125 ave 32 max 4 min
Histogram: 2 0 0 2 0 0 0 0 0 4
Nghost:    864.875 ave 916 max 810 min
Histogram: 2 1 1 0 0 0 0 0 2 2
Neighs:    2733.12 ave 4209 max 579 min
Histogram: 2 0 0 2 0 0 0 0 0 4

Total # of neighbors = 21865
Ave neighs/atom = 135.807
Neighbor list builds = 0
Dangerous builds = 0

unfix 1
###
min_style cg
minimize 1.0e-8 1.0e-8 100000 100000
WARNING: Using 'neigh_modify every 1 delay 0 check yes' setting during minimization (../min.cpp:190)
WARNING: Total cutoff < 2*bond cutoff. May need to use an increased neighbor list skin. (../pair_reaxc.cpp:413)
Per MPI rank memory allocation (min/avg/max) = 22.43 | 23.37 | 24.36 Mbytes
Step Temp E_pair E_mol TotEng Press 
     471            0   -29182.757            0   -29182.757    6823.6431 
     522            0   -29201.156            0   -29201.156    32098.645 
Loop time of 2.83124 on 8 procs for 51 steps with 161 atoms

99.3% CPU use with 8 MPI tasks x no OpenMP threads

Minimization stats:
  Stopping criterion = energy tolerance
  Energy initial, next-to-last, final = 
        -29182.7573911       -29201.15612     -29201.1563902
  Force two-norm initial, final = 349.721 170.166
  Force max component initial, final = 42.4253 32.7897
  Final line search alpha, max atom move = 0.000189209 0.00620411
  Iterations, force evaluations = 51 345

MPI task timing breakdown:
Section |  min time  |  avg time  |  max time  |%varavg| %total
---------------------------------------------------------------
Pair    | 2.1547     | 2.2572     | 2.3643     |   5.7 | 79.73
Neigh   | 0          | 0          | 0          |   0.0 |  0.00
Comm    | 0.018139   | 0.12497    | 0.22696    |  24.4 |  4.41
Output  | 0.0001906  | 0.00024477 | 0.00046821 |   0.0 |  0.01
Modify  | 0.44451    | 0.4447     | 0.445      |   0.0 | 15.71
Other   |            | 0.004102   |            |       |  0.14

Nlocal:    20.125 ave 32 max 4 min
Histogram: 2 0 0 2 0 0 0 0 0 4
Nghost:    864 ave 918 max 806 min
Histogram: 2 1 1 0 0 0 0 0 2 2
Neighs:    2725.62 ave 4196 max 578 min
Histogram: 2 0 0 2 0 0 0 0 0 4

Total # of neighbors = 21805
Ave neighs/atom = 135.435
Neighbor list builds = 0
Dangerous builds = 0

undump 1
#############
#----------- Thermo ------------
reset_timestep 0
thermo  200

thermo_style    custom step temp etotal ke pe press
velocity all create 300 12345 mom yes rot yes
fix 1 all npt temp 300 300 25.0 iso 0.0 0.0 250.0

variable vpe equal pe
variable vtemp equal temp
variable vstep equal step

fix output all print 2500 "${vstep} ${vtemp} ${vpe}" file temp-tpdh-Pt.dat screen no

dump 1 all custom 2500 thermo-tpdh-Pt.lammpstrj id type x y z

run 1000000
WARNING: Total cutoff < 2*bond cutoff. May need to use an increased neighbor list skin. (../pair_reaxc.cpp:413)
Per MPI rank memory allocation (min/avg/max) = 21.32 | 22.26 | 23.25 Mbytes
Step Temp TotEng KinEng PotEng Press 
       0          300   -29058.078    143.07888   -29201.156    33949.015 
     200    319.81569   -29095.235    152.52957   -29247.765     19520.39 
     400    349.96897   -29122.438    166.91056   -29289.348    22225.883 
     600    278.63615   -29152.158    132.88983   -29285.048    3196.9547 
     800    314.46293   -29146.584    149.97668   -29296.561    11213.228 
    1000    321.65699   -29114.253    153.40774   -29267.661    6090.5599 
    1200     266.4425   -29138.587    127.07432   -29265.661   -2230.2626 
    1400    310.89931   -29112.059    148.27709   -29260.336   -2343.5711 
    1600    296.98998   -29111.945    141.64331   -29253.588   -11973.254 
    1800    264.25951   -29116.714    126.03318   -29242.747    26450.222 
    2000    314.31327   -29089.598    149.90531   -29239.503   -4408.6631 
    2200    289.06557   -29104.965    137.86393   -29242.829    15836.661 
    2400    296.62835   -29105.084    141.47084   -29246.555    28054.499 
    2600    295.23906   -29072.624    140.80825   -29213.432    11296.909 
    2800    319.02507   -29084.066     152.1525   -29236.219   -8641.4384 
    3000    266.43895   -29100.202    127.07262   -29227.275    20182.198 
    3200    314.46695   -29073.835     149.9786   -29223.814   -26761.736 
    3400    301.83456   -29071.803    143.95384   -29215.757    7588.2143 
    3600    343.50298   -29045.623    163.82674    -29209.45    15320.176 
    3800    299.60737    -29083.68    142.89162   -29226.571     12053.62 
    4000    342.38289   -29069.531    163.29254   -29232.824   -2141.1707 
    4200    319.66324   -29056.308    152.45686   -29208.765   -4032.9778 
    4400    302.41073   -29085.495    144.22863   -29229.723    -7787.255 
    4600    273.41796   -29101.583    130.40112   -29231.984   -17007.472 
    4800    327.30123   -29068.217    156.09965   -29224.317    4099.8304 
    5000    297.35569   -29089.472    141.81773    -29231.29   -27579.391 
    5200    296.31667   -29099.052    141.32219   -29240.375   -15499.771 
    5400    298.35531   -29080.523    142.29448   -29222.818    5728.5732 
    5600    311.56742   -29086.134    148.59573    -29234.73   -19984.203 
    5800    295.59202   -29111.697    140.97659   -29252.673    1531.8606 
    6000    306.76754   -29094.607    146.30652   -29240.914    14856.853 
    6200    332.44393    -29104.86    158.55235   -29263.413   -43560.571 
    6400    305.00962   -29123.596    145.46812   -29269.064    35293.228 
    6600    296.39971   -29128.135     141.3618   -29269.497   -12175.754 
    6800    305.58927   -29112.827    145.74457   -29258.571   -31491.189 
    7000    299.70769   -29096.364    142.93947   -29239.303    41957.523 
    7200    336.14651   -29080.652    160.31822    -29240.97   -2227.4614 
    7400    313.14866   -29111.418    149.34987   -29260.768    2635.9506 
    7600    305.41408   -29092.548    145.66102   -29238.209    14938.576 
    7800    294.04607   -29107.487    140.23928   -29247.726    21132.579 
    8000    303.68687   -29125.173    144.83726   -29270.011    841.98239 
    8200    281.89253   -29103.864     134.4429   -29238.307   -2644.5506 
    8400    311.76875   -29103.096    148.69175   -29251.788    11798.407 
    8600     290.7447   -29121.933    138.66476   -29260.598   -240.12517 
    8800    288.98468   -29110.191    137.82535   -29248.016   -9353.8191 
    9000    332.11027   -29086.549    158.39322   -29244.942    23442.005 
    9200    322.76356    -29094.65     153.9355   -29248.586    35082.178 
    9400    296.36844    -29112.08    141.34689   -29253.427    21390.227 
    9600    288.94282   -29112.718    137.80539   -29250.523    12524.362 
    9800    311.64768    -29086.95      148.634   -29235.584   -18867.476 
   10000    315.90177    -29118.78    150.66291   -29269.443    2126.3291 
   10200    278.32945   -29107.384    132.74355   -29240.127   -11082.622 
   10400     306.1524   -29094.656    146.01315   -29240.669    26535.246 
   10600    297.96435   -29112.358    142.10802   -29254.466    8855.2516 
   10800      303.402   -29120.531     144.7014   -29265.232    11661.612 
   11000    266.27469   -29150.031    126.99429   -29277.026    -15836.83 
   11200    302.61152   -29119.728    144.32439   -29264.052   -32854.261 
   11400    294.25131   -29118.777    140.33716   -29259.114   -17265.563 
   11600     270.7378   -29147.621    129.12287   -29276.744    3148.6892 
   11800    297.54013    -29116.49     141.9057   -29258.396   -10157.813 
   12000    302.90559   -29122.578    144.46464   -29267.043    18979.857 
   12200    283.89338   -29149.286    135.39716   -29284.683   -1099.8629 
   12400     273.5367   -29129.744    130.45775   -29260.202    6876.6623 
   12600    293.63316   -29102.421    140.04235   -29242.463   -26218.703 
   12800    298.82951   -29098.245    142.52064   -29240.766    29630.263 
   13000    309.28016   -29127.655    147.50486   -29275.159   -23399.286 
   13200    324.71248   -29121.732      154.865   -29276.597    33931.802 
   13400    294.38425   -29125.641    140.40057   -29266.042   -2113.0874 
   13600    257.91692    -29136.03    123.00822   -29259.038    10690.997 
   13800    330.49414    -29104.75    157.62244   -29262.372   -18384.532 
   14000    306.25751   -29117.502    146.06327   -29263.565    17869.885 
   14200    285.28092   -29120.365    136.05892   -29256.424   -22400.438 
   14400     283.3357   -29121.147    135.13119   -29256.278   -55329.028 
   14600    282.32596   -29131.954    134.64961   -29266.604    2837.7137 
   14800    296.28468   -29099.786    141.30694   -29241.093   -21652.019 
   15000    274.95675    -29104.67    131.13502   -29235.805   -17670.728 
   15200    285.11057   -29135.833    135.97767   -29271.811   -96.139972 
   15400    308.04516   -29114.506    146.91586   -29261.422    8998.8949 
   15600    289.29226   -29107.477    137.97205   -29245.449    -19124.52 
   15800    295.28029    -29080.23    140.82791   -29221.058   -1897.3426 
   16000    328.03217   -29089.424    156.44826   -29245.872   -23912.566 
   16200    320.32314   -29108.829    152.77159   -29261.601   -1144.3669 
   16400    262.27456   -29119.416    125.08651   -29244.503   -1247.2981 
   16600    310.48019   -29114.867    148.07719   -29262.944   -14074.093 
   16800    293.11721   -29087.976    139.79628   -29227.772    29924.889 
   17000    291.66452   -29113.475    139.10345   -29252.578   -29212.386 
   17200    275.66487   -29117.759    131.47274   -29249.232   -14317.201 
   17400    304.12117   -29112.867    145.04439   -29257.911    10442.756 
   17600    326.12133   -29088.903    155.53692    -29244.44   -5659.6755 
   17800    303.05292   -29090.133    144.53491   -29234.668    44322.159 
   18000    294.74297   -29108.998    140.57165    -29249.57    11854.002 
   18200    289.05778   -29116.135    137.86021   -29253.995    27575.742 
   18400     266.2263   -29133.335     126.9712   -29260.306   -30655.482 
   18600    300.72332   -29099.655    143.42385   -29243.079    34136.885 
   18800    290.41029   -29098.045    138.50527    -29236.55   -55007.145 
   19000    299.21056   -29132.131    142.70237   -29274.833   -20079.561 
   19200    303.75581   -29117.916    144.87014   -29262.786    23883.284 
   19400    287.81325   -29103.767    137.26666   -29241.033   -38079.297 
   19600    294.91355   -29117.915    140.65301   -29258.568   -37212.903 
   19800    300.43238   -29120.223     143.2851   -29263.508    23391.024 
   20000    323.01376   -29101.052    154.05483   -29255.107   -36597.887 
   20200    308.50859   -29128.385    147.13688   -29275.522    7805.2742 
   20400    276.94401   -29113.889     132.0828   -29245.972   -8103.4186 
   20600    302.47803   -29102.529    144.26073    -29246.79    19554.803 
   20800    321.40281   -29105.133    153.28652   -29258.419      23258.7 
   21000     296.5128    -29112.41    141.41573   -29253.826   -7967.2774 
   21200    281.78531   -29134.386    134.39176   -29268.778   -21680.401 
   21400    303.77441   -29113.461    144.87901    -29258.34   -7223.8649 
   21600    296.71062   -29103.753    141.51008   -29245.263    267.16104 
   21800    273.90136   -29131.537    130.63167   -29262.168   -13199.932 
   22000    298.74725   -29119.006    142.48141   -29261.488    14743.023 
   22200    301.40782   -29110.183    143.75031   -29253.934   -10217.198 
   22400    299.37163   -29130.907    142.77919   -29273.686    2228.2705 
   22600      292.483   -29104.033     139.4938   -29243.527    29566.481 
   22800    301.29326   -29099.953    143.69568   -29243.649    665.95004 
   23000    307.54737   -29131.963    146.67844   -29278.641    38040.567 
   23200    316.05512   -29125.741    150.73604   -29276.477    1544.4315 
   23400    292.05007   -29102.357    139.28732   -29241.644   -23712.158 
   23600    321.87454   -29090.952     153.5115   -29244.463   -36088.626 
   23800    292.22866   -29126.583     139.3725   -29265.956    27016.304 
   24000    298.52907   -29108.775    142.37735   -29251.152   -36606.989 
   24200    304.29482   -29102.143    145.12721    -29247.27     6567.407 
   24400    293.10782   -29118.601     139.7918   -29258.393   -3985.6383 
   24600    278.26233   -29123.909    132.71154    -29256.62     2219.558 
   24800    320.29741   -29096.959    152.75932   -29249.718    13916.845 
   25000    299.38386   -29096.381    142.78503   -29239.166   -4902.6969 
   25200    291.63941   -29126.802    139.09147   -29265.893    25267.388 
   25400    310.72168   -29105.851    148.19237   -29254.043    12450.611 
   25600    310.33469   -29104.101     148.0078   -29252.109   -15545.934 
   25800     297.4927   -29129.698    141.88308   -29271.581   -2964.4807 
   26000    343.05159   -29102.409    163.61146    -29266.02   -7124.1227 
   26200    303.49103   -29112.514    144.74386   -29257.258   -15332.231 
   26400    281.02271   -29137.585    134.02805   -29271.613   -13054.803 
   26600    307.25262   -29119.756    146.53787   -29266.294   -37720.879 
   26800    299.13622   -29108.402    142.66692   -29251.069   -19798.993 
   27000     366.3048   -29086.364    174.70161   -29261.066    13491.368 
   27200    275.83418   -29121.163    131.55349   -29252.717   -19317.634 
   27400    313.01219   -29103.169    149.28478   -29252.454   -1695.7871 
   27600    310.97989   -29105.792    148.31552   -29254.107    8156.6919 
   27800    308.87182   -29126.103    147.31011   -29273.413   -3711.8776 
   28000    307.27386    -29101.98      146.548   -29248.528    1986.6329 
   28200    300.24625   -29118.166    143.19633   -29261.363   -5758.1541 
   28400    288.22349   -29118.219    137.46232   -29255.681    27649.916 
   28600    308.85165   -29097.429     147.3005    -29244.73   -7870.2836 
   28800    300.80524   -29109.796    143.46293   -29253.259   -2490.1632 
   29000    262.49228   -29129.988    125.19034   -29255.178    1380.0744 
   29200    290.35113   -29114.903    138.47705    -29253.38    2113.9692 
   29400    330.93686   -29112.661    157.83359   -29270.495   -4041.2353 
   29600    285.18518   -29130.422    136.01326   -29266.435     4022.254 
   29800    293.87843   -29119.003    140.15933   -29259.163    9520.0629 
   30000    308.41741   -29108.832    147.09339   -29255.925    10384.746 
   30200     307.9456   -29130.948    146.86838   -29277.816   -5594.0973 
   30400    287.94985   -29121.236    137.33181   -29258.568    16742.911 
   30600    314.93217    -29103.64    150.20048    -29253.84   -11624.604 
   30800    320.73614   -29085.391    152.96856    -29238.36   -1418.0432 
   31000    313.27972   -29114.997    149.41237   -29264.409     9204.152 
   31200      316.508   -29100.786    150.95204   -29251.738   -4348.5854 
   31400    310.32135   -29096.314    148.00144   -29244.316    4243.2705 
   31600     301.8517   -29123.642    143.96201   -29267.604   -8662.4668 
   31800    321.45915   -29107.835    153.31339   -29261.149      31127.1 
   32000    306.91512   -29109.474    146.37691   -29255.851    7413.1661 
   32200    280.18264   -29131.755     133.6274   -29265.382       1836.8 
   32400    322.14374   -29107.241    153.63989   -29260.881    -22041.23 
   32600    292.96837   -29132.891    139.72529   -29272.616    2811.1274 
   32800    273.57262   -29140.082    130.47488   -29270.557   -1988.4773 
   33000    309.30969    -29112.74    147.51895   -29260.259    39332.323 
   33200    308.48304   -29135.589     147.1247   -29282.714    11777.333 
   33400    281.78275   -29128.287    134.39054   -29262.678   -1345.8381 
   33600    304.50845   -29116.142     145.2291   -29261.371    26693.258 
   33800    270.62571   -29135.601    129.06941   -29264.671   -8084.7597 
   34000    284.05331   -29141.269    135.47343   -29276.742   -52792.465 
   34200     298.3501   -29115.469      142.292   -29257.761   -2960.6242 
   34400    331.85445   -29095.474    158.27121   -29253.745    34300.603 
   34600    286.65031    -29128.06    136.71202   -29264.772   -13779.703 
   34800    290.17288   -29117.557    138.39204   -29255.949    30968.928 
   35000    330.11777   -29104.226    157.44294   -29261.669   -12398.322 
   35200    302.21316   -29108.247     144.1344   -29252.382   -9798.2602 
   35400    316.99377    -29116.49    151.18371   -29267.674   -8010.3974 
   35600    298.58146   -29109.256    142.40234   -29251.658   -32962.072 
   35800    333.92127   -29095.209    159.25694   -29254.466   -29005.859 
   36000    265.58432   -29127.338    126.66503   -29254.003    258.65047 
   36200    318.10627   -29100.053     151.7143   -29251.768   -2167.3531 
   36400    310.85252   -29097.676    148.25477   -29245.931   -37087.262 
   36600     306.7782   -29112.423    146.31161   -29258.734   -21873.014 
   36800    299.08183   -29117.632    142.64098   -29260.273    25801.398 
   37000    302.27788   -29115.539    144.16527   -29259.704    4339.5199 
   37200    338.22881   -29088.153    161.31133   -29249.464     875.4857 
   37400    289.58686   -29114.161    138.11255   -29252.274   -24767.204 
   37600    291.62408   -29117.194    139.08416   -29256.278    5902.2202 
   37800    323.70514   -29094.715    154.38457   -29249.099   -56385.065 
   38000    331.93025   -29076.402    158.30736    -29234.71   -4790.0444 
   38200    298.24526   -29108.055    142.24199   -29250.297    17305.612 
   38400    326.19069   -29088.149       155.57   -29243.719   -42007.636 
   38600    306.05256   -29087.882    145.96553   -29233.848    32559.949 
   38800    282.16868   -29117.876     134.5746   -29252.451    48881.729 
   39000    338.29768   -29090.066    161.34418    -29251.41    -16502.32 
   39200    305.74102   -29093.515    145.81694   -29239.332    2716.0652 
   39400    328.53892    -29103.54    156.68994    -29260.23   -30771.394 
   39600    288.35376   -29124.322    137.52445   -29261.846   -5753.2179 
   39800    252.41024   -29142.274    120.38192   -29262.656   -3500.4848 
   40000    333.42794   -29110.929    159.02166   -29269.951    20809.056 
   40200    316.28763   -29103.542    150.84694   -29254.389    42243.037 
   40400    309.97224   -29113.381    147.83494   -29261.216   -3359.1792 
   40600    279.48766   -29132.714    133.29594    -29266.01   -33684.344 
   40800    320.88393   -29100.593    153.03905   -29253.632   -13582.194 
   41000    289.14198   -29119.378    137.90037   -29257.278   -7915.7498 
   41200    287.82959   -29122.802    137.27446   -29260.077    6296.7041 
   41400    314.93457   -29092.703    150.20162   -29242.905    35851.567 
   41600    316.13005   -29124.812    150.77178   -29275.584   -9255.4733 
   41800    289.23991   -29126.577    137.94708   -29264.524   -15776.585 
   42000    331.73606   -29094.721    158.21475   -29252.936   -11472.954 
   42200    270.17786   -29121.629    128.85582   -29250.485   -35018.186 
   42400    283.37272   -29112.886    135.14884   -29248.034    860.02583 
   42600    352.32502   -29090.447    168.03424   -29258.481   -5073.3916 
   42800    312.21305    -29084.53    148.90365   -29233.434   -10946.805 
   43000    276.03156   -29111.377    131.64762   -29243.024   -18857.502 
   43200    296.50026    -29103.87    141.40975    -29245.28    19177.262 
   43400    336.08649   -29086.963     160.2896   -29247.253    13636.738 
   43600     286.7624     -29110.7    136.76548   -29247.465    -22555.19 
   43800    289.68163   -29119.377    138.15775   -29257.535    12714.407 
   44000    312.33824   -29097.554    148.96335   -29246.517    18153.474 
   44200    281.88092   -29120.264    134.43735   -29254.701   -7579.4896 
   44400    263.68697   -29116.844    125.76012   -29242.605    32011.637 
   44600    294.78079   -29103.915    140.58969   -29244.504   -16901.602 
   44800    304.79636   -29113.685    145.36641   -29259.051    28278.945 
   45000    279.38234   -29117.277    133.24571   -29250.523   -9463.9387 
   45200    313.12445   -29109.272    149.33832    -29258.61   -7889.9938 
   45400    310.46344    -29099.83    148.06921     -29247.9    5129.8746 
   45600     292.8211   -29099.573    139.65505   -29239.228      38233.9 
   45800    273.71275   -29120.987    130.54171   -29251.529    32123.889 
   46000    310.54617   -29089.784    148.10866   -29237.893   -6864.8694 
   46200    316.14403   -29101.901    150.77845    -29252.68      2919.91 
   46400    273.29849   -29116.958    130.34414   -29247.303   -40915.446 
   46600    295.33205   -29106.449     140.8526   -29247.302    4668.9297 
   46800    274.95415   -29094.785    131.13378   -29225.919   -29861.451 
   47000    273.04406   -29119.371     130.2228   -29249.594   -10593.143 
   47200    282.82362   -29116.154    134.88696   -29251.041   -16066.522 
   47400    298.98903    -29094.07    142.59672   -29236.667    7271.9999 
   47600    270.87859   -29120.945    129.19002   -29250.135    7583.7186 
   47800    271.27316   -29123.464     129.3782   -29252.842    46403.915 
   48000    297.98365   -29111.593    142.11722    -29253.71   -24587.608 
   48200    306.38803   -29114.748    146.12552   -29260.874   -31122.606 
   48400    296.86992   -29144.742    141.58606   -29286.328   -768.36539 
   48600    302.85346   -29119.875    144.43978   -29264.315    13462.942 
   48800    316.13618   -29108.986     150.7747    -29259.76   -16279.219 
   49000    284.08952   -29116.628     135.4907   -29252.118   -19365.772 
   49200    273.50243   -29117.339    130.44141   -29247.781   -21500.459 
   49400    298.59454   -29092.685    142.40858   -29235.094    1551.6028 
   49600    281.17536   -29113.642    134.10086   -29247.743    15045.773 
   49800    274.68111   -29131.889    131.00355   -29262.893   -4874.6561 
   50000    317.54025   -29095.598    151.44435   -29247.043   -39.777532 
   50200     289.8988   -29101.427    138.26132   -29239.688   -7134.5035 
   50400     296.9686   -29114.606    141.63312   -29256.239    27273.704 
   50600    294.38562   -29096.227    140.40122   -29236.628   -58070.057 
   50800    316.80531   -29099.375    151.09383   -29250.469   -18854.068 
   51000     263.1551   -29119.212    125.50646   -29244.718   -831.27233 
   51200    316.57463   -29100.106    150.98381    -29251.09   -6618.9711 
   51400    308.05767   -29111.122    146.92182   -29258.044    5085.2102 
   51600    279.41672   -29125.511    133.26211   -29258.773   -18243.222 
   51800    313.85806   -29098.398     149.6882   -29248.086   -13282.046 
   52000    313.84184   -29113.826    149.68047   -29263.507   -16600.798 
   52200    314.69388   -29128.753    150.08683    -29278.84   -9549.5262 
   52400    276.40284   -29128.626     131.8247    -29260.45   -15187.164 
   52600    312.15301    -29101.08    148.87501   -29249.955     23960.82 
   52800    307.27681   -29131.637    146.54941   -29278.186     -37886.3 
   53000     297.9445   -29124.485    142.09855   -29266.584   -9504.3569 
   53200    301.93012   -29106.075    143.99941   -29250.074    28076.546 
   53400    316.18412   -29109.802    150.79757     -29260.6   -36616.417 
   53600    299.43913   -29106.652    142.81139   -29249.463   -6329.5164 
   53800    295.76201   -29075.332    141.05766    -29216.39    23234.891 
   54000    312.37823   -29104.571    148.98242   -29253.554    12720.241 
   54200    315.23054    -29104.54    150.34278   -29254.883    29128.624 
   54400    289.01667   -29090.914    137.84061   -29228.754   -689.29757 
   54600    303.94892   -29113.575    144.96224   -29258.537   -16294.126 
   54800    271.86283   -29113.401    129.65943   -29243.061   -5068.3957 
   55000    322.62042   -29089.271    153.86723   -29243.138    21906.218 
   55200    324.33838   -29114.288    154.68657   -29268.974   -28800.595 
   55400    311.43258    -29116.27    148.53142   -29264.801    -9703.047 
   55600    315.07315   -29086.642    150.26771    -29236.91   -9035.7065 
   55800    281.39459   -29116.455    134.20541   -29250.661    9072.7801 
   56000    304.53744    -29114.99    145.24292   -29260.233    30210.553 
   56200    318.32272   -29097.671    151.81753   -29249.489   -8457.4543 
   56400    295.13999   -29117.362      140.761   -29258.123    26876.339 
   56600    284.04248   -29122.911    135.46827   -29258.379      2160.31 
   56800    322.08407   -29096.648    153.61143   -29250.259     30002.76 
   57000    307.59573   -29103.355    146.70151   -29250.056   -13396.847 
   57200    302.68296    -29123.37    144.35847   -29267.728    47395.864 
   57400    307.09655   -29116.147    146.46344   -29262.611    -19408.35 
   57600    321.79163   -29093.632    153.47196   -29247.104     597.6653 
   57800    276.40923   -29125.794    131.82775   -29257.622    19352.332 
   58000    278.43148   -29115.487    132.79222   -29248.279    10151.876 
   58200    312.22265   -29096.872    148.90823    -29245.78    6697.8294 
   58400    291.91854   -29122.835    139.22459   -29262.059    10152.952 
   58600    308.22406   -29116.392    147.00118   -29263.393     29690.13 
   58800    295.58123   -29096.089    140.97144    -29237.06   -6474.5197 
   59000    306.20442   -29105.846    146.03795   -29251.884   -7413.2195 
   59200    282.83634   -29128.531    134.89302   -29263.424   -6513.4264 
   59400    298.85296   -29102.549    142.53182   -29245.081    4500.2007 
   59600    301.97821   -29102.586    144.02235   -29246.608    -9928.925 
   59800     249.8508   -29131.105    119.16124   -29250.266   -11074.379 
   60000    314.62327   -29109.175    150.05315   -29259.228    111.59539 
   60200    301.70277   -29103.429    143.89099    -29247.32    -6180.892 
   60400    280.09389   -29129.329    133.58507   -29262.914    16375.056 
   60600    296.45514   -29112.943    141.38823   -29254.331    18953.932 
   60800    299.63894   -29095.125    142.90668   -29238.032   -349.77523 
   61000    301.98392   -29119.635    144.02507    -29263.66     14344.98 
   61200    265.92956   -29114.726    126.82968   -29241.556    9286.3668 
   61400    299.28906   -29094.742    142.73981   -29237.482   -20842.952 
   61600    291.08178   -29117.467    138.82552   -29256.292   -25350.876 
   61800    295.30347   -29095.305    140.83897   -29236.144    23168.673 
   62000     308.3545   -29100.057    147.06339    -29247.12    27130.798 
   62200    301.81802   -29115.422    143.94595   -29259.368    -15534.25 
   62400    300.30947   -29111.347    143.22648   -29254.574    38513.579 
   62600    325.77697   -29106.279    155.37268   -29261.652    -18550.66 
   62800    293.32073   -29102.125    139.89334   -29242.018   -33577.598 
   63000    274.32457   -29126.496    130.83351    -29257.33    21639.667 
   63200    296.12493   -29112.919    141.23075    -29254.15   -4709.5758 
   63400    310.42678   -29102.226    148.05172   -29250.277    21179.018 
   63600    301.85755   -29122.757     143.9648   -29266.722   -59278.215 
   63800     317.6908   -29086.718    151.51615   -29238.234   -20642.728 
   64000    325.48444   -29103.214    155.23317   -29258.447   -13434.395 
   64200    292.32565   -29118.473    139.41876   -29257.892    22286.852 
   64400    315.15117   -29102.755    150.30493    -29253.06    6564.0482 
   64600    319.27932   -29094.201    152.27376   -29246.475   -13508.003 
   64800    293.73489   -29119.058    140.09086   -29259.149   -59171.712 
   65000    336.88176   -29107.209    160.66889   -29267.877   -43266.252 
   65200    305.43478   -29097.185    145.67089   -29242.856    -6634.078 
   65400    294.17985   -29128.271    140.30308   -29268.574   -20086.847 
   65600     315.7757   -29122.477    150.60278    -29273.08    -12097.54 
   65800    316.69124   -29098.237    151.03943   -29249.276   -1916.2474 
   66000    299.15656   -29127.441    142.67662   -29270.117   -8747.2727 
   66200    287.31381   -29123.266    137.02846   -29260.295   -6153.5802 
   66400    310.14186   -29106.633    147.91583   -29254.549   -3315.0788 
   66600    301.54549   -29110.181    143.81597   -29253.997    19086.847 
   66800    300.56248   -29099.314    143.34715   -29242.661   -16148.013 
   67000     336.7229   -29086.379    160.59312   -29246.973     27981.85 
   67200     288.8632   -29112.945    137.76742   -29250.712    12748.872 
   67400    296.49094   -29099.326    141.40531   -29240.732    7621.8997 
   67600    336.90783   -29066.951    160.68132   -29227.632     21005.56 
   67800    318.48515   -29094.413      151.895   -29246.308   -20823.257 
   68000    299.27201   -29107.796    142.73168   -29250.528   -17901.484 
   68200    305.30148   -29105.349    145.60732   -29250.957   -32574.319 
   68400    298.58766   -29111.601     142.4053   -29254.006    19870.194 
   68600    296.61973   -29128.608    141.46673   -29270.075   -14942.871 
   68800    318.53164   -29098.863    151.91717    -29250.78    -3287.959 
   69000    289.49739   -29120.593    138.06988   -29258.663    33129.461 
   69200    321.11311   -29119.642    153.14835    -29272.79   -4790.3951 
   69400    335.31505   -29109.089    159.92168    -29269.01    13217.979 
   69600    266.09545   -29139.249     126.9088   -29266.158   -5511.3281 
   69800    277.77763   -29116.731    132.48038   -29249.212    5352.4872 
   70000    304.31998   -29118.245    145.13921   -29263.384   -51398.053 
   70200    304.54958   -29110.695    145.24871   -29255.944    20023.048 
   70400    320.97269    -29094.63    153.08138   -29247.711    32898.272 
   70600    283.40732    -29120.97    135.16534   -29256.135    25716.564 
   70800    312.20883   -29096.389    148.90164    -29245.29    24729.932 
   71000    278.26658   -29095.708    132.71357   -29228.422    5222.6827 
   71200    275.29042   -29103.925    131.29415   -29235.219   -43990.303 
   71400    334.42578   -29070.565    159.49755   -29230.063   -19853.139 
   71600    310.46116    -29101.76    148.06812   -29249.828    6944.0845 
   71800    309.00369   -29111.318    147.37301   -29258.691   -20804.122 
   72000    286.76375   -29117.023    136.76612   -29253.789   -2617.1138 
   72200    314.57369   -29111.295    150.02951   -29261.325   -9766.6728 
   72400    320.01735   -29099.262    152.62575   -29251.888   -45372.763 
   72600    285.18599   -29129.181    136.01364   -29265.194   -5954.8522 
   72800    314.62856   -29116.649    150.05568   -29266.704    36062.865 
   73000    321.83508   -29103.732    153.49268   -29257.224    -4099.969 
   73200    295.84845   -29123.896    141.09889   -29264.994    7709.6557 
   73400    310.78507   -29113.287     148.2226    -29261.51   -10704.984 
   73600    311.64293   -29098.081    148.63174   -29246.712    -5595.939 
   73800    318.90295   -29122.277    152.09426   -29274.371   -15.474022 
   74000    311.95657    -29115.48    148.78132   -29264.262    40899.498 
   74200    262.48157   -29105.277    125.18523   -29230.462    1558.3379 
   74400    326.39789   -29074.669    155.66882   -29230.338    44491.178 
   74600    305.77107   -29096.732    145.83127   -29242.564   -66463.451 
   74800    294.24165    -29108.43    140.33255   -29248.762   -19185.536 
   75000    323.73967   -29075.278    154.40103   -29229.679     1847.206 
   75200    290.76312   -29098.266    138.67354   -29236.939   -11983.649 
   75400    290.30143   -29102.035    138.45335   -29240.489    39936.851 
   75600    312.29292   -29076.117    148.94174   -29225.059    11472.212 
   75800    301.89043   -29101.628    143.98049   -29245.609   -31424.677 
   76000    296.72833   -29114.218    141.51852   -29255.736    19117.875 
   76200    309.80505   -29132.511     147.7552   -29280.266   -16133.001 
   76400    294.27089   -29138.718     140.3465   -29279.065    27064.196 
   76600    312.86043   -29114.471     149.2124   -29263.684   -13071.955 
   76800    303.40235   -29135.011    144.70157   -29279.712    32579.479 
   77000     296.2465   -29138.728    141.28873   -29280.017    4657.6529 
   77200    328.05142   -29113.884    156.45743   -29270.341    29436.379 
   77400    285.30819   -29140.986    136.07192   -29277.057   -1165.7839 
   77600    296.79774   -29130.902    141.55163   -29272.454   -17917.529 
   77800    305.74619   -29120.652    145.81941   -29266.472   -7436.9421 
   78000    300.06469   -29112.944    143.10974   -29256.054     5203.975 
   78200    299.85145   -29109.764    143.00803   -29252.772     31635.21 
   78400    309.67209   -29077.602    147.69179   -29225.294   -47983.424 
   78600    299.11337   -29099.995    142.65602   -29242.651    6377.6037 
   78800    309.72037   -29110.443    147.71482   -29258.158    32382.172 
   79000    301.73294   -29108.787    143.90537   -29252.693   -5807.5434 
   79200    325.71772   -29119.831    155.34443   -29275.176   -2802.6377 
   79400    297.91036   -29132.134    142.08227   -29274.217   -7057.4359 
   79600    327.17186   -29099.923    156.03795   -29255.961    7498.9988 
   79800    290.12839   -29124.184    138.37082   -29262.555    9272.6521 
   80000      302.578   -29118.052     144.3084    -29262.36    21823.969 
   80200    326.61095   -29099.597    155.77043   -29255.367    6700.1671 
   80400    286.36293   -29127.602    136.57496   -29264.177   -9849.8443 
   80600    310.10987   -29103.073    147.90058   -29250.974    14014.348 
   80800    319.03493   -29098.531    152.15721   -29250.688    -901.7223 
   81000    336.27031   -29112.562    160.37727   -29272.939    5954.9341 
   81200    301.62062   -29106.499    143.85181   -29250.351     19497.82 
   81400    342.56575   -29083.785    163.37975   -29247.165    3304.2044 
   81600     291.5297    -29112.97    139.03914   -29252.009    15030.662 
   81800    314.74095   -29105.004    150.10928   -29255.114    2651.3056 
   82000    346.93763   -29077.157    165.46483   -29242.622   -42675.853 
   82200    291.37974   -29106.062    138.96762   -29245.029   -37657.525 
   82400    313.28608   -29114.089    149.41541   -29263.504   -93.038491 
   82600    332.47288   -29086.726    158.56616   -29245.292   -17248.552 
   82800    281.03937    -29110.96      134.036   -29244.996    3760.0808 
   83000    310.67191   -29115.453    148.16863   -29263.622   -16285.574 
   83200    327.51891   -29085.494    156.20347   -29241.697   -26495.117 
   83400    338.98514   -29068.276    161.67205   -29229.948    2966.9473 
   83600    283.14185   -29115.189    135.03873   -29250.227    65701.864 
   83800    280.38945   -29126.221    133.72603   -29259.947    3379.4045 
   84000    320.39917   -29097.267    152.80785   -29250.075   -39859.168 
   84200    289.89964   -29131.039    138.26172   -29269.301   -14680.598 
   84400    286.02632   -29122.926    136.41442    -29259.34     4554.983 
   84600    311.27379   -29105.233    148.45569   -29253.688   -517.58876 
   84800    253.78386   -29140.279    121.03704   -29261.316   -3315.4766 
   85000    305.86667   -29117.308    145.87687   -29263.185   -31784.324 
   85200     292.4082   -29118.181    139.45813   -29257.639   -7246.7358 
   85400    297.05279   -29113.822    141.67327   -29255.495   -8180.0108 
   85600    300.24369   -29091.666     143.1951   -29234.861   -4259.6968 
   85800    300.33161   -29119.213    143.23704    -29262.45    64821.034 
   86000    310.48701   -29101.803    148.08045   -29249.884   -889.06753 
   86200    357.73627    -29056.53    170.61502   -29227.145   -49959.699 
   86400    285.41266   -29088.421    136.12175   -29224.543   -14962.113 
   86600    279.34892   -29112.112    133.22977   -29245.342    -12782.98 
   86800    300.29834   -29093.798    143.22117   -29237.019   -22408.319 
   87000    334.19858   -29089.792     159.3892   -29249.181   -9584.9659 
   87200    257.15645   -29115.593    122.64552   -29238.239   -13205.889 
   87400    327.76318   -29090.653    156.31997   -29246.972     8896.025 
   87600    293.63201   -29101.668     140.0418    -29241.71   -3337.2725 
   87800    276.34601   -29122.367     131.7976   -29254.164   -8956.0019 
   88000    303.93768   -29097.124    144.95688   -29242.081   -9666.0112 
   88200    290.88625    -29109.77    138.73227   -29248.502     -22176.2 
   88400    262.46198   -29126.804    125.17589    -29251.98    8599.1931 
   88600    316.08528   -29105.679    150.75043   -29256.429    4161.6988 
   88800    306.13726   -29108.271    146.00592   -29254.277    20708.143 
   89000    289.46291   -29134.398    138.05343   -29272.451   -8213.2515 
   89200      303.646    -29101.78    144.81777   -29246.598   -18764.758 
   89400    301.99306    -29109.44    144.02943    -29253.47   -30984.508 
   89600     280.6063   -29139.856    133.82945   -29273.686    7437.0585 
   89800    306.57817   -29131.135    146.21621   -29277.351   -27759.873 
   90000     283.3804   -29103.482     135.1525   -29238.635   -16656.471 
   90200    325.42133    -29105.22    155.20307   -29260.423   -24157.419 
   90400    291.48222   -29128.631     139.0165   -29267.647    18299.679 
   90600    308.35879   -29107.961    147.06544   -29255.026    1260.4621 
   90800    307.41503   -29107.806    146.61533   -29254.422     15690.64 
   91000    282.60755   -29128.994    134.78391   -29263.778   -23526.327 
   91200    298.37082   -29117.745    142.30188   -29260.047   -17528.805 
   91400    278.28209   -29100.961    132.72097   -29233.682    18741.308 
   91600    287.98571   -29110.619    137.34891   -29247.968    34739.318 
   91800     298.2596   -29118.599    142.24883   -29260.848    4271.8126 
   92000    312.90256   -29092.572    149.23249   -29241.804    13873.535 
   92200    271.40063    -29115.65    129.43899   -29245.089     28536.51 
   92400    296.38109   -29117.517    141.35292   -29258.869   -980.46814 
   92600    318.98537   -29113.129    152.13357   -29265.262   -609.16896 
   92800    290.69279   -29133.733       138.64   -29272.373   -12153.901 
   93000    295.27395    -29113.78    140.82489   -29254.605     43855.45 
   93200    341.74918   -29108.422     162.9903   -29271.413   -6132.8308 
   93400    288.01367   -29121.794    137.36225   -29259.156   -18956.631 
   93600    305.69129   -29116.493    145.79322   -29262.286    11658.769 
   93800    327.30041    -29097.16    156.09926   -29253.259    53516.051 
   94000    336.47087    -29099.35    160.47292   -29259.823   -16108.019 
   94200    315.48961   -29121.231    150.46634   -29271.697   -12936.292 
   94400    314.36572   -29107.885    149.93032   -29257.816   -15034.255 
   94600    298.47192   -29089.853     142.3501   -29232.204   -6549.9499 
   94800    296.46632   -29111.217    141.39357    -29252.61   -5407.2077 
   95000    293.13024   -29107.965    139.80249   -29247.767   -9914.7284 
   95200     302.8428    -29078.96     144.4347   -29223.395   -18424.607 
   95400    305.25423   -29102.656    145.58478   -29248.241    48861.397 
   95600    287.60812   -29106.507    137.16883   -29243.676     25481.84 
   95800    329.45935   -29084.601    157.12892    -29241.73   -23102.699 
   96000    291.97267   -29105.252    139.25041   -29244.502   -12659.828 
   96200    275.69839   -29113.219    131.48873   -29244.708    19050.695 
   96400    340.19357   -29087.221    162.24839    -29249.47   -40215.053 
   96600    311.51448   -29102.751    148.57048   -29251.322   -37635.732 
   96800    293.05626    -29120.56    139.76721   -29260.327    30566.561 
   97000    310.04424   -29120.275    147.86928   -29268.144   -18485.033 
   97200    301.04919   -29097.755    143.57927   -29241.335   -11687.368 
   97400     299.9781   -29129.612    143.06844   -29272.681    37520.731 
   97600    311.73062   -29117.486    148.67356    -29266.16     49210.27 
   97800    324.52398   -29107.309    154.77509   -29262.084   -22779.709 
   98000    287.85285   -29135.634    137.28555   -29272.919    30123.947 
   98200    277.12011   -29134.739    132.16679   -29266.906    1668.3976 
   98400    304.46501   -29108.571    145.20838   -29253.779   -4899.1815 
   98600    296.28721   -29125.446    141.30814   -29266.755   -15797.588 
   98800    282.38035    -29134.46    134.67555   -29269.135   -15310.331 
   99000    308.03814   -29118.008    146.91251    -29264.92     37865.22 
   99200     301.9327   -29102.424    144.00065   -29246.425     3010.366 
   99400     310.0375   -29074.127    147.86606   -29221.993    17103.962 
   99600    292.04778   -29107.564    139.28623    -29246.85    40346.233 
   99800    299.00856   -29101.246    142.60604   -29243.852   -2509.6545 
  100000    309.02298   -29081.384    147.38221   -29228.766   -15543.943 
  100200    288.32915   -29118.402    137.51271   -29255.915   -21127.853 
  100400    318.46426   -29103.867    151.88503   -29255.752   -16730.509 
  100600    317.10237   -29080.258    151.23551   -29231.493   -18651.251 
  100800    287.47487   -29118.675    137.10528   -29255.781    50885.841 
  101000    306.44915   -29110.182    146.15467   -29256.336   -1627.0755 
  101200    309.09782   -29094.027     147.4179   -29241.445     16651.19 
  101400    284.15091   -29127.041    135.51998   -29262.561    8634.9124 
  101600    304.55119     -29103.8    145.24948   -29249.049    6377.4713 
  101800    288.48598   -29130.252     137.5875    -29267.84    8810.5613 
  102000    294.58213    -29125.85    140.49494   -29266.344    12006.684 
  102200    315.93963   -29109.907    150.68096   -29260.588    18591.305 
  102400    279.43379   -29140.281    133.27025   -29273.551    53691.802 
  102600    294.83999   -29132.118    140.61792   -29272.736     14151.86 
  102800    292.99442   -29111.967    139.73772   -29251.704    19574.329 
  103000     317.3232   -29109.404    151.34083   -29260.744   -35910.524 
  103200    260.47764   -29130.904     124.2295   -29255.134   -27433.267 
  103400    330.63692   -29100.092    157.69054   -29257.783   -3462.0426 
  103600    255.71498   -29105.823    121.95805   -29227.781    10324.535 
  103800    318.14639   -29109.373    151.73343   -29261.107    6267.6164 
  104000    287.34577   -29108.292    137.04371   -29245.336   -20637.402 
  104200    312.49749   -29086.517     149.0393   -29235.556    17236.443 
  104400    273.48135   -29118.352    130.43135   -29248.783    7429.6329 
  104600    312.53715   -29107.203    149.05822   -29256.261   -35244.263 
  104800    314.49334   -29094.769    149.99118   -29244.761   -5052.7517 
  105000    281.14778     -29114.7     134.0877   -29248.788    5744.5715 
  105200    278.16585   -29120.286    132.66553   -29252.951   -7654.9461 
  105400    319.29677    -29092.83    152.28208   -29245.112    10439.733 
  105600    285.46716   -29109.624    136.14774   -29245.772    3303.3429 
  105800    316.61667   -29111.563    151.00386   -29262.567    28615.042 
  106000    312.11803   -29103.164    148.85833   -29252.022   -11925.073 
  106200    272.25358   -29124.873    129.84579   -29254.719    4008.7892 
  106400     309.2407   -29111.958    147.48604   -29259.444   -14736.927 
  106600    324.52062    -29100.43    154.77349   -29255.203    32917.705 
  106800    315.72574   -29112.218    150.57895   -29262.797   -4083.0055 
  107000    271.43973   -29122.058    129.45764   -29251.515   -6230.1812 
  107200    310.58142   -29115.814    148.12547    -29263.94    23541.421 
  107400    305.14528   -29095.702    145.53282   -29241.234    24179.839 
  107600    305.58148   -29127.466    145.74086   -29273.207   -12572.651 
  107800     298.6042   -29115.558    142.41318   -29257.971    5313.5244 
  108000    315.89652   -29100.355     150.6604   -29251.015   -17157.337 
  108200    299.60612   -29117.097    142.89103   -29259.988    31888.626 
  108400    269.73162   -29147.789      128.643   -29276.432    -18891.44 
  108600    299.87318   -29116.079     143.0184   -29259.097    2817.6071 
  108800    326.52539    -29097.26    155.72963    -29252.99    -24861.81 
  109000    296.93722    -29123.74    141.61815   -29265.358    1433.9234 
  109200    294.25772   -29120.078    140.34022   -29260.419    2900.3158 
  109400    295.87698   -29109.827    141.11249   -29250.939    12914.387 
  109600     291.2613   -29100.426    138.91114   -29239.337   -19389.899 
  109800    353.47541   -29084.366    168.58289   -29252.949   -8370.5425 
  110000     310.8788   -29108.997     148.2673   -29257.264    14506.124 
  110200    310.51973   -29110.816    148.09605   -29258.912   -41294.739 
  110400    287.61381   -29128.731    137.17154   -29265.903    8412.4857 
  110600    304.47279   -29108.229    145.21209   -29253.441   -16992.442 
  110800     327.5644   -29107.858    156.22516   -29264.084    21311.476 
  111000    300.04699   -29121.017     143.1013   -29264.118   -22341.648 
  111200    297.45972   -29119.509    141.86735   -29261.377    -23976.61 
  111400    335.09323   -29101.125    159.81588    -29260.94   -3662.6034 
  111600    261.33653   -29131.678    124.63913   -29256.318     18024.15 
  111800    299.19153   -29116.303     142.6933   -29258.996    10689.982 
  112000    297.98579   -29112.127    142.11825   -29254.245   -24820.959 
  112200     307.4114   -29106.287     146.6136   -29252.901   -6832.1372 
  112400    306.87674   -29087.469    146.35861   -29233.827    9697.8731 
  112600    276.90605    -29118.21     132.0647   -29250.275   -30692.293 
  112800    299.29973   -29099.442     142.7449   -29242.187   -3257.3037 
  113000    309.42873   -29086.676    147.57572   -29234.252    22431.872 
  113200    306.65399    -29119.07    146.25237   -29265.322   -3783.4776 
  113400    330.76332   -29097.014    157.75082   -29254.764    8634.1215 
  113600    296.84966   -29113.943    141.57639   -29255.519     11338.62 
  113800     291.6159   -29117.983    139.08026   -29257.063    1053.6038 
  114000    306.08579   -29098.815    145.98138   -29244.797    12281.408 
  114200    283.89909   -29111.802    135.39988   -29247.202    11815.066 
  114400    262.47408   -29140.096    125.18166   -29265.278   -17382.212 
  114600    298.04168   -29108.752     142.1449   -29250.897   -2315.4018 
  114800     292.1323    -29109.68    139.32655   -29249.007    29450.783 
  115000    277.99542   -29126.304    132.58425   -29258.888   -62034.953 
  115200    294.97314   -29105.578    140.68142    -29246.26   -17433.845 
  115400    309.84926   -29096.639    147.77629   -29244.416   -12398.646 
  115600    246.91128   -29135.289     117.7593   -29253.048    4535.0691 
  115800    292.66987    -29116.71    139.58293   -29256.293    -18544.18 
  116000    307.55972   -29101.139    146.68434   -29247.824    7415.6693 
  116200    259.40428   -29138.219    123.71758   -29261.937    10541.266 
  116400    284.33645   -29113.184    135.60847   -29248.792    23314.527 
  116600    305.80216   -29100.857    145.84611   -29246.703   -21910.462 
  116800    281.34418     -29125.2    134.18137   -29259.381   -11538.839 
  117000     294.1718   -29111.631    140.29924    -29251.93    15582.674 
  117200    321.24119   -29098.762    153.20943   -29251.971     5237.578 
  117400    303.20265   -29103.023    144.60632   -29247.629    14444.595 
  117600    311.77258   -29116.711    148.69358   -29265.405   -8610.6256 
  117800     315.5928   -29097.355    150.51555   -29247.871    51732.194 
  118000    298.79935   -29095.285    142.50626   -29237.791    51579.384 
  118200    282.21155   -29127.393    134.59505   -29261.988    5508.4518 
  118400    306.88778   -29113.703    146.36387   -29260.067   -63881.193 
  118600    328.01843   -29095.828     156.4417   -29252.269   -15917.119 
  118800    269.34339   -29131.237    128.45784   -29259.694   -21465.374 
  119000    312.06768   -29115.045    148.83432    -29263.88    3707.5014 
  119200    307.14243   -29110.328    146.48532   -29256.814   -4627.6724 
  119400    262.08765   -29148.822    124.99736   -29273.819    10873.365 
  119600    308.74616   -29121.625    147.25019   -29268.875    18497.774 
  119800     326.0276   -29108.259    155.49221   -29263.751    1764.3636 
  120000    319.92868    -29102.75    152.58346   -29255.333    35427.577 
  120200    281.64539    -29130.55    134.32502   -29264.875    8107.5346 
  120400     323.0472   -29118.195    154.07077   -29272.266    41951.266 
  120600    293.93391   -29101.581    140.18578   -29241.767    33072.716 
  120800    293.72782   -29117.513    140.08749     -29257.6    -11882.62 
  121000    272.46066   -29134.809    129.94456   -29264.753    -19554.82 
  121200    317.78647   -29099.897    151.56178   -29251.459    12348.627 
  121400    307.81231   -29116.957    146.80481   -29263.762   -34415.206 
  121600    282.87282   -29115.568    134.91042   -29250.478    34701.228 
  121800    301.91149   -29093.972    143.99053   -29237.962    917.23361 
  122000    314.01465   -29116.458    149.76288   -29266.221    3519.0793 
  122200    302.81678   -29115.605    144.42229   -29260.027    22142.022 
  122400    319.63348   -29085.592    152.44267   -29238.035    1252.0903 
  122600    276.52065    -29117.04    131.88088   -29248.921    -56018.39 
  122800    314.60356   -29108.911    150.04375   -29258.955   -37522.592 
  123000    335.28996   -29086.244    159.90971   -29246.153    17978.133 
  123200    320.32138   -29109.231    152.77075   -29262.002   -13822.504 
  123400    288.56246   -29125.265    137.62398   -29262.889   -13240.218 
  123600    268.54366   -29132.904    128.07642   -29260.981    11150.497 
  123800    309.32231   -29102.908    147.52497   -29250.433    20148.412 
  124000    272.53879    -29121.37    129.98182   -29251.351    5668.4972 
  124200    318.08178   -29108.708    151.70262    -29260.41   -41481.018 
  124400    313.39843   -29098.115    149.46899   -29247.584   -32319.786 
  124600     272.8471   -29119.273    130.12886   -29249.402     17308.34 
  124800    328.39154   -29086.814    156.61965   -29243.434    1966.3844 
  125000    288.39513    -29106.32    137.54417   -29243.864    19646.993 
  125200    286.27591   -29116.948    136.53346   -29253.482   -26737.357 
  125400    277.83993   -29109.855    132.51009   -29242.365    24605.219 
  125600    297.90983   -29112.852    142.08202   -29254.934   -23828.218 
  125800    253.01548   -29133.071    120.67057   -29253.741   -23190.211 
  126000    301.03516   -29103.388    143.57258    -29246.96    13477.354 
  126200    308.29548   -29114.862    147.03524   -29261.897   -35188.315 
  126400    284.20257   -29135.567    135.54462   -29271.111   -34344.197 
  126600    293.04219   -29115.786     139.7605   -29255.546     19319.28 
  126800    285.79383   -29102.569    136.30354   -29238.872    -41892.31 
  127000    305.23672   -29090.524    145.57643   -29236.101    10696.609 
  127200    284.37685   -29121.582    135.62774    -29257.21   -25259.195 
  127400    300.44219   -29108.985    143.28978   -29252.275    23048.641 
  127600    313.80517   -29089.227    149.66298    -29238.89   -4310.4731 
  127800    290.88362   -29111.573    138.73101   -29250.304    7413.1392 
  128000    281.35861   -29117.579    134.18825   -29251.767    11978.603 
  128200    351.05036   -29077.102    167.42631   -29244.528   -23282.914 
  128400    301.51237   -29110.433    143.80017   -29254.233   -2309.4742 
  128600    309.62109   -29118.746    147.66747   -29266.413     11963.52 
  128800    310.73999    -29105.63     148.2011   -29253.831    -5197.966 
  129000    310.06493   -29098.872    147.87915   -29246.751    -3997.202 
  129200    276.22851    -29127.06    131.74156   -29258.802    33740.951 
  129400    302.77127    -29108.85    144.40058    -29253.25    -12330.99 
  129600    325.43997   -29096.945    155.21196   -29252.157    34509.654 
  129800    311.07107   -29123.652      148.359   -29272.011    7601.8252 
  130000    281.61148   -29113.943    134.30885   -29248.251    9759.1716 
  130200    332.64772   -29097.172    158.64955   -29255.821     23756.43 
  130400    280.50619   -29116.525    133.78171   -29250.307    27883.872 
  130600    287.80942   -29113.435    137.26483     -29250.7    25337.456 
  130800    288.71506   -29111.828    137.69676   -29249.525   -7313.1864 
  131000    297.68414   -29111.067    141.97438   -29253.041   -19565.272 
  131200    314.84735   -29098.073    150.16002   -29248.233    8020.8766 
  131400    277.16865   -29123.961    132.18994   -29256.151   -460.86021 
  131600    305.41568   -29119.088    145.66178   -29264.749   -23316.797 
  131800    315.75903   -29106.099    150.59483   -29256.693   -21321.241 
  132000    260.02912   -29121.405    124.01559   -29245.421    1413.5626 
  132200    310.12218   -29119.386    147.90645   -29267.293   -2654.0416 
  132400    319.56222   -29094.591    152.40868       -29247    28152.288 
  132600    296.24589   -29123.305    141.28843   -29264.593   -5551.0778 
  132800     281.7265   -29113.827    134.36371   -29248.191    7389.8062 
  133000     332.4949   -29098.011    158.57666   -29256.587     4318.371 
  133200     282.8566   -29126.828    134.90269   -29261.731   -1132.4662 
  133400    332.87603   -29113.607    158.75844   -29272.365   -10795.573 
  133600    314.57459   -29106.411    150.02994   -29256.441    26286.916 
  133800     260.5577   -29117.184    124.26768   -29241.452    5543.3534 
  134000    295.71968   -29115.819    141.03747   -29256.857    37302.827 
  134200    290.83459   -29099.292    138.70763   -29237.999   -28364.793 
  134400    318.52316    -29107.64    151.91313   -29259.553   -24912.523 
  134600    290.55894   -29125.343    138.57616   -29263.919   -33943.188 
  134800    313.39117   -29105.227    149.46553   -29254.692   -7683.4559 
  135000    327.52368   -29101.256    156.20574   -29257.462    12683.834 
  135200     313.6387   -29089.443    149.58358   -29239.026   -42164.786 
  135400    303.15258   -29116.014    144.58244   -29260.597   -15336.273 
  135600    279.53922       -29114    133.32053   -29247.321   -30553.783 
  135800    307.42894   -29096.693    146.62196   -29243.315    25238.115 
  136000    297.71502    -29113.13    141.98911   -29255.119    2619.8474 
  136200    267.53038   -29126.339    127.59316   -29253.932   -17834.988 
  136400    300.84374   -29105.303    143.48129   -29248.784     5579.259 
  136600    311.06354   -29106.056    148.35541   -29254.411     5655.186 
  136800    276.64062     -29128.5     131.9381   -29260.438   -23899.571 
  137000    309.59204   -29111.503    147.65361   -29259.157    18114.225 
  137200    296.64284   -29114.473    141.47775   -29255.951    20009.471 
  137400    290.76158   -29136.273    138.67281   -29274.946   -10133.243 
  137600    328.85112   -29106.098    156.83884   -29262.937    3111.2378 
  137800     306.6691    -29113.33    146.25957    -29259.59   -496.16653 
  138000    262.00869   -29137.678     124.9597   -29262.637    27367.146 
  138200    320.99489   -29107.153    153.09197   -29260.245     3237.007 
  138400     315.6214    -29116.94    150.52919    -29267.47   -12096.412 
  138600    257.62229   -29136.489     122.8677   -29259.356    44203.141 
  138800    273.99566   -29104.198    130.67664   -29234.875    25656.894 
  139000    291.19365   -29108.297    138.87887   -29247.176   -28913.109 
  139200    289.71768   -29136.919    138.17494   -29275.094    22014.438 
  139400    265.80824   -29101.704    126.77182   -29228.476    24305.028 
  139600    320.06217   -29103.477    152.64713   -29256.124   -1649.1361 
  139800    284.92081   -29124.072    135.88717   -29259.959    17558.087 
  140000    308.80207   -29109.386    147.27685   -29256.663   -14515.415 
  140200    300.59553    -29095.77    143.36291   -29239.133    -29955.41 
  140400    266.08363   -29128.422    126.90316   -29255.325    -4390.843 
  140600    289.09119   -29122.938    137.87615   -29260.814     30251.06 
  140800    320.44467   -29100.524    152.82955   -29253.354    25736.683 
  141000    301.27506   -29117.545      143.687   -29261.232    5185.6969 
  141200    297.90205   -29128.324    142.07831   -29270.402   -10694.222 
  141400    294.61008   -29104.234    140.50827   -29244.742   -6961.8415 
  141600    271.44061    -29124.07    129.45806   -29253.528   -9320.3541 
  141800    287.06349   -29133.464    136.90908   -29270.373    -7782.851 
  142000     323.3904   -29110.816    154.23446   -29265.051    3959.9172 
  142200    306.93182   -29111.941    146.38487   -29258.326    25256.006 
  142400     274.4124   -29133.204     130.8754    -29264.08   -19839.841 
  142600    318.25809   -29105.407    151.78671   -29257.194    10941.837 
  142800    288.56865   -29105.191    137.62693   -29242.818    -54400.49 
  143000    314.19143   -29110.554    149.84719   -29260.401   -22738.992 
  143200    263.11962   -29124.726    125.48954   -29250.215   -34854.073 
  143400    286.42728   -29124.293    136.60565   -29260.899   -19895.153 
  143600    306.86753   -29100.804    146.35421   -29247.158   -3480.4571 
  143800    280.56671   -29132.573    133.81057   -29266.384   -2220.5975 
  144000    287.82546   -29118.871    137.27249   -29256.144   -23801.733 
  144200    309.29628   -29104.672    147.51256   -29252.185    41285.149 
  144400    263.99413   -29130.894    125.90662   -29256.801    -74465.12 
  144600    247.58346   -29135.849    118.07988   -29253.929   -1019.2077 
  144800    308.55131   -29107.425    147.15726   -29254.583    36918.055 
  145000    311.76739    -29104.26     148.6911   -29252.951     40839.87 
  145200    278.19406   -29128.891    132.67898    -29261.57     -5897.74 
  145400    325.21701   -29101.073    155.10562   -29256.179     4275.996 
  145600    306.47766   -29111.906    146.16827   -29258.074    50351.599 
  145800    256.58022   -29108.659     122.3707    -29231.03   -37174.847 
  146000    311.43921   -29087.121    148.53458   -29235.655    26174.203 
  146200    287.51901   -29105.984    137.12633    -29243.11    491.36826 
  146400    292.34453   -29103.967    139.42776   -29243.395    859.33713 
  146600    333.52784   -29083.126     159.0693   -29242.195   -6496.8207 
  146800    295.33693   -29088.495    140.85493    -29229.35   -32702.154 
  147000     318.7594   -29108.482     152.0258   -29260.508   -6123.7523 
  147200    306.29685   -29105.846    146.08204   -29251.928    4177.5293 
  147400    326.08006   -29087.107    155.51724   -29242.624    14933.494 
  147600    292.63568   -29120.315    139.56662   -29259.881   -25902.957 
  147800    304.01292   -29114.883    144.99276   -29259.876    10143.815 
  148000    313.07674     -29081.6    149.31557   -29230.915    41169.393 
  148200    318.54154   -29090.605    151.92189   -29242.527    1383.4621 
  148400    292.88404   -29116.074    139.68507   -29255.759    28633.799 
  148600    318.12373   -29107.573    151.72263   -29259.296    3410.4621 
  148800    324.48276   -29089.547    154.75544   -29244.302   -11603.691 
  149000    278.13769   -29111.471     132.6521   -29244.123   -33469.065 
  149200    301.68091   -29105.442    143.88056   -29249.323   -27787.399 
  149400    334.00481   -29081.902    159.29678   -29241.199    14590.433 
  149600    277.33589   -29116.954     132.2697   -29249.223    9695.3811 
  149800    304.78322   -29109.112    145.36014   -29254.472   -12053.238 
  150000     304.6203   -29089.076    145.28244   -29234.359    1967.7834 
  150200    269.58761   -29124.857    128.57431   -29253.432    8203.2075 
  150400    291.34242   -29104.868    138.94982   -29243.818   -23482.125 
  150600    313.04286   -29104.386    149.29941   -29253.685    18184.322 
  150800    279.90615   -29130.761    133.49553   -29264.256    33541.777 
  151000    328.84534   -29103.565    156.83608   -29260.401   -14662.396 
  151200    284.78745   -29121.298    135.82357   -29257.122   -5486.4266 
  151400     288.2692   -29128.298    137.48412   -29265.782   -5195.0826 
  151600    296.77816   -29113.677    141.54229   -29255.219   -37080.046 
  151800     299.4268   -29116.438    142.80551   -29259.243   -9795.8504 
  152000    259.42116     -29139.7    123.72563   -29263.425    3315.2879 
  152200    321.76009   -29112.483    153.45691    -29265.94    23619.906 
  152400    308.55909   -29111.191    147.16097   -29258.352   -6275.8112 
  152600    267.01468   -29147.185    127.34721   -29274.532    17870.309 
  152800    263.07202   -29127.607    125.46683   -29253.074    16254.564 
  153000    296.73509   -29112.521    141.52175   -29254.043    36252.687 
  153200      296.949   -29117.647    141.62377   -29259.271   -8003.6785 
  153400    288.88391   -29134.392    137.77729    -29272.17   -60290.018 
  153600    331.51675   -29104.374    158.11015   -29262.484    32893.602 
  153800    308.57727   -29111.044    147.16963   -29258.214    22708.622 
  154000     271.7796   -29132.362    129.61974   -29261.982    29289.557 
  154200    285.93238   -29132.182    136.36962   -29268.552   -6759.6143 
  154400    275.81094   -29106.048     131.5424    -29237.59    13294.034 
  154600    323.71715    -29093.64    154.39029   -29248.031    41212.826 
  154800    296.41632   -29114.548    141.36972   -29255.918    9031.8318 
  155000    306.20757   -29121.953    146.03946   -29267.993     1424.778 
  155200    308.25127   -29096.761    147.01416   -29243.775     15878.32 
  155400    292.63694   -29109.953    139.56722   -29249.521   -33447.477 
  155600    293.37325   -29112.717    139.91839   -29252.635    6913.6602 
  155800    332.21637   -29083.013    158.44382   -29241.457   -18842.149 
  156000    317.52498   -29112.208    151.43707   -29263.645    -6282.878 
  156200    300.54862   -29115.179    143.34054    -29258.52   -8520.8603 
  156400    336.88452   -29080.428     160.6702   -29241.099   -38440.803 
  156600     286.2325   -29107.575    136.51276   -29244.088    7022.2767 
  156800    286.76253   -29117.238    136.76554   -29254.004   -42088.021 
  157000    298.97028   -29091.711    142.58778   -29234.299    680.02475 
  157200    314.95373   -29108.354    150.21076   -29258.565   -5126.4088 
  157400    295.81317   -29114.983    141.08206   -29256.065   -13662.262 
  157600    312.73794   -29090.947    149.15398   -29240.101   -45915.076 
  157800    298.41867   -29104.724     142.3247   -29247.049    14996.264 
  158000    257.17115   -29119.319    122.65254   -29241.972     17590.28 
  158200    311.51253   -29092.561    148.56955   -29241.131    56977.441 
  158400    297.19476   -29111.044    141.74098   -29252.785   -21378.865 
  158600    296.11095   -29123.229    141.22408   -29264.453    7387.1651 
  158800    291.09181   -29131.041     138.8303   -29269.872   -9403.6358 
  159000    322.34368   -29109.612    153.73525   -29263.347   -12881.973 
  159200    294.57103   -29122.473    140.48965   -29262.963    4765.0683 
  159400     279.4543   -29131.907    133.28003   -29265.187    32932.045 
  159600    330.30826   -29113.802    157.53379   -29271.335    7826.6553 
  159800    285.71203   -29121.934    136.26453   -29258.198     16012.75 
  160000    304.76717   -29119.375    145.35249   -29264.727    321.41248 
  160200    329.45123   -29111.567    157.12505   -29268.692   -29773.894 
  160400    297.49095   -29103.316    141.88224   -29245.199   -24202.967 
  160600     271.8567   -29132.258    129.65651   -29261.914   -930.92977 
  160800    325.87324   -29115.138     155.4186   -29270.557    44797.551 
  161000    314.77212    -29104.79    150.12415   -29254.914    16707.823 
  161200    298.37873   -29129.123    142.30565   -29271.428   -5323.4923 
  161400    305.67399   -29120.621    145.78497   -29266.406   -1554.5599 
  161600    308.00948   -29104.698    146.89884   -29251.597    42856.537 
  161800    315.99955   -29128.296    150.70954   -29279.006    9866.1316 
  162000    281.41635   -29122.159    134.21579   -29256.374    2881.6409 
  162200    348.62871   -29094.733    166.27136   -29261.005    22160.704 
  162400    293.61364   -29118.775    140.03304   -29258.808   -30117.514 
  162600      295.457   -29120.802    140.91219   -29261.714    22004.848 
  162800    318.16646   -29090.966    151.74301   -29242.709   -45767.632 
  163000     322.6468    -29115.32    153.87981     -29269.2    34268.394 
  163200    277.62503   -29121.711     132.4076   -29254.118   -8539.4059 
  163400    303.66478   -29098.344    144.82672   -29243.171    10118.675 
  163600    310.71772   -29090.908    148.19048   -29239.099   -26719.503 
  163800    279.07209   -29114.649    133.09774   -29247.746   -1494.3929 
  164000    321.90924   -29102.448    153.52805   -29255.976   -23807.242 
  164200    309.25063   -29085.348    147.49078   -29232.839     18531.59 
  164400    294.25389   -29114.438    140.33839   -29254.776    15071.198 
  164600    271.02276   -29108.374    129.25878   -29237.633   -39363.213 
  164800    336.84602   -29087.784    160.65184   -29248.436   -19662.128 
  165000    285.82826   -29104.418    136.31996   -29240.738    2221.1029 
  165200    314.97969   -29113.389    150.22314   -29263.612    2668.9768 
  165400    258.52749   -29136.985    123.29941   -29260.284   -13833.348 
  165600     292.2308   -29105.978    139.37352   -29245.351   -24582.734 
  165800     315.4273   -29114.387    150.43662   -29264.824    16103.469 
  166000    281.06746   -29131.634     134.0494   -29265.684   -18054.475 
  166200    304.05682   -29121.541     145.0137   -29266.555    14961.196 
  166400    300.40265   -29107.593    143.27092   -29250.864   -23937.299 
  166600    283.53305   -29130.805    135.22531    -29266.03    13357.208 
  166800     281.3436   -29125.232    134.18109   -29259.413   -35930.928 
  167000    302.74712   -29108.163    144.38906   -29252.552    7536.8478 
  167200    290.37031   -29123.706     138.4862   -29262.192    331.93367 
  167400    277.14757    -29137.48    132.17988    -29269.66   -15249.367 
  167600    310.72328   -29102.194    148.19313   -29250.387    33.899587 
  167800    283.96732   -29126.871    135.43242   -29262.303     39033.82 
  168000    299.50127   -29122.589    142.84102    -29265.43    5149.6927 
  168200     318.1912   -29095.433     151.7548   -29247.187   -7166.9196 
  168400    348.30222   -29086.295    166.11564   -29252.411    11612.592 
  168600    303.05516   -29122.368    144.53598   -29266.904   -9551.4814 
  168800    303.47656   -29127.269    144.73696   -29272.005    49435.566 
  169000    302.69766    -29095.24    144.36547   -29239.605    5369.5096 
  169200     322.1982   -29112.511    153.66586   -29266.177    14117.515 
  169400    302.12955   -29126.011    144.09453   -29270.105    792.29631 
  169600    302.68661   -29104.423    144.36021   -29248.783   -9183.9912 
  169800    321.85507    -29102.18    153.50221   -29255.682     4695.219 
  170000    268.92443    -29132.34    128.25802   -29260.598   -27196.905 
  170200      316.465   -29108.416    150.93153   -29259.348     61374.52 
  170400    328.54424   -29091.797    156.69248   -29248.489   -6076.6851 
  170600    303.54577   -29134.283    144.76996   -29279.053   -20467.013 
  170800    284.81307   -29128.514    135.83579   -29264.349    -2324.059 
  171000    292.12153    -29100.66    139.32141   -29239.981    12022.716 
  171200    296.74103   -29111.374    141.52458   -29252.899   -12222.025 
  171400    275.08101   -29148.973    131.19428   -29280.167     15398.82 
  171600    286.09329   -29122.113    136.44636    -29258.56    10170.388 
  171800    321.88885   -29098.361    153.51832   -29251.879    20394.275 
  172000    289.67553   -29130.783    138.15484   -29268.938   -23945.157 
  172200    292.63804   -29123.659    139.56774   -29263.226   -24513.217 
  172400    315.89345   -29106.291    150.65894    -29256.95   -3463.8742 
  172600    301.08639   -29118.387    143.59701   -29261.984    41964.019 
  172800    315.62556    -29113.72    150.53117   -29264.251    13720.939 
  173000    300.24093   -29105.935    143.19379   -29249.129    28790.936 
  173200    293.18987   -29125.843    139.83093   -29265.674    13490.381 
  173400    323.65277   -29101.326    154.35959   -29255.685    15680.234 
  173600    291.22707   -29105.112    138.89481   -29244.006    2663.7998 
  173800    279.41719   -29112.919    133.26233   -29246.181   -4340.8806 
  174000    302.36904   -29109.664    144.20875   -29253.872    7689.7321 
  174200    299.96979   -29131.005    143.06448   -29274.069   -4534.2223 
  174400    289.86968   -29118.989    138.24743   -29257.236   -2204.4703 
  174600    307.70575   -29109.499    146.75398   -29256.253   -1291.9251 
  174800    282.16964   -29133.044    134.57506   -29267.619   -12529.567 
  175000    330.85594   -29099.182    157.79499   -29256.977   -2866.1417 
  175200     296.7901   -29117.128    141.54798   -29258.676   -6366.2167 
  175400    269.74991   -29122.456    128.65172   -29251.108    14052.018 
  175600    320.55537   -29089.436    152.88235   -29242.319   -9197.5496 
  175800    284.27884   -29111.578    135.58099   -29247.159    3856.9168 
  176000    294.51086   -29125.553    140.46095   -29266.014   -29260.733 
  176200    279.95362   -29141.246    133.51817   -29274.764   -8841.4243 
  176400    286.40518   -29125.012    136.59511   -29261.607    1977.0647 
  176600    330.48548   -29112.818    157.61831   -29270.437    32807.857 
  176800    262.53238   -29146.523    125.20946   -29271.733     10820.13 
  177000    284.09131    -29129.89    135.49156   -29265.381   -43865.694 
  177200    312.37736    -29116.44    148.98201   -29265.422    28759.752 
  177400    325.31255   -29088.921    155.15119   -29244.073   -19343.482 
  177600    316.07783   -29112.834    150.74688   -29263.581    9471.3886 
  177800    295.36766   -29123.104    140.86958   -29263.973    -20663.15 
[...]
  950000    285.11607   -29145.703    135.98029   -29281.683   -28409.858 
  950200    260.39726   -29170.439    124.19116    -29294.63     1257.568 
  950400    322.86966   -29136.175     153.9861   -29290.161    36781.755 
  950600    316.49767   -29140.137    150.94711   -29291.084    20993.125 
  950800    277.25346   -29166.941    132.23039   -29299.171    30298.623 
  951000    303.52418   -29130.112    144.75967   -29274.871   -20572.698 
  951200    281.81508   -29144.994    134.40596     -29279.4   -33367.877 
  951400    269.53411   -29152.133     128.5488   -29280.681    11716.823 
  951600     337.9129   -29121.516    161.16067   -29282.676    5438.6859 
  951800    295.52483   -29143.875    140.94454   -29284.819   -12234.533 
  952000    295.43758   -29140.563    140.90293   -29281.466    28613.549 
  952200    321.47874    -29112.87    153.32273   -29266.193    18941.516 
  952400    310.26637   -29142.171    147.97522   -29290.146    22446.572 
  952600    298.12916   -29141.418    142.18662   -29283.605    47696.259 
  952800    303.48138   -29112.317    144.73925   -29257.056   -14152.116 
  953000    311.06109   -29140.405    148.35424    -29288.76   -17604.386 
  953200    292.66406    -29137.68    139.58016    -29277.26    1864.1767 
  953400     312.8257   -29140.707    149.19584   -29289.902    18044.266 
  953600    295.97722   -29147.032     141.1603   -29288.192   -18746.548 
  953800    307.75264   -29123.508    146.77635   -29270.284    11344.012 
  954000    287.74441   -29155.775    137.23383   -29293.009    28506.514 
  954200    291.05287   -29147.161    138.81173   -29285.973   -10395.757 
  954400    322.16278   -29122.611    153.64897    -29276.26   -19020.934 
  954600    266.60029   -29158.358    127.14957   -29285.508   -11120.447 
  954800    299.80767   -29142.487    142.98716   -29285.474   -5950.4557 
  955000    307.48327   -29132.754    146.64788   -29279.402   -23733.324 
  955200    292.22968   -29147.856    139.37299   -29287.229   -52412.794 
  955400    275.40487   -29147.863    131.34874   -29279.212   -18113.297 
  955600    269.48252   -29144.688    128.52419   -29273.212    9327.3616 
  955800    307.82777   -29130.038    146.81218    -29276.85   -24372.062 
  956000     268.1822   -29159.187    127.90403   -29287.091   -8221.2284 
  956200    307.44802   -29143.946    146.63107   -29290.577   -23691.853 
  956400    296.87934   -29140.212    141.59055   -29281.803   -48422.078 
  956600    253.06294   -29168.941    120.69321   -29289.634   -18363.013 
  956800    314.52201   -29137.848    150.00486   -29287.853    1227.8859 
  957000     301.8695   -29141.287     143.9705   -29285.258    12.380737 
  957200    297.45402   -29167.619    141.86463   -29309.483   -10977.491 
  957400    300.58917   -29145.213    143.35987   -29288.573    -1984.508 
  957600    318.15726   -29145.163    151.73862   -29296.901    17305.705 
  957800    281.63433   -29166.911    134.31975    -29301.23   -13286.253 
  958000    315.96639   -29145.196    150.69373   -29295.889   -7222.1636 
  958200    313.46308   -29138.971    149.49983    -29288.47   -48150.511 
  958400     276.6983   -29167.452    131.96561   -29299.418    17973.787 
  958600    282.09059   -29137.154    134.53735   -29271.692    15708.218 
  958800    329.17578   -29138.125    156.99368   -29295.118    45878.021 
  959000    302.40507    -29159.68    144.22593   -29303.905   -45460.731 
  959200    349.11896   -29123.843    166.50517   -29290.348    459.33705 
  959400      286.292   -29147.421    136.54113   -29283.963   -9883.8531 
  959600    277.53295   -29142.557    132.36368   -29274.921   -50110.779 
  959800    339.00086   -29102.554    161.67955   -29264.233   -20294.278 
  960000     268.4672   -29144.706    128.03995   -29272.746    -51217.32 
  960200    284.06443   -29147.922    135.47874   -29283.401    3152.2366 
  960400    302.90157    -29123.14    144.46273   -29267.602   -20182.692 
  960600    297.54336    -29144.12    141.90724   -29286.027   -21675.438 
  960800    262.48935   -29152.615    125.18894   -29277.804   -25158.069 
  961000    282.29982   -29126.753    134.63714    -29261.39   -28170.922 
  961200    282.89231   -29161.288    134.91972   -29296.208    -15498.26 
  961400    285.83999   -29145.272    136.32555   -29281.598     38040.14 
  961600    310.32568   -29135.861     148.0035   -29283.865   -21481.553 
  961800     279.4923   -29166.879    133.29815   -29300.178   -1594.9354 
  962000    282.79578    -29142.03    134.87368   -29276.903   -13679.428 
  962200    281.22952   -29136.041    134.12668   -29270.167   -24744.732 
  962400    307.69848   -29151.026    146.75052   -29297.776    26877.872 
  962600    272.50024   -29160.326    129.96343    -29290.29    18893.525 
  962800    283.02564   -29138.203    134.98331   -29273.186    43971.396 
  963000    268.21222   -29151.513    127.91835   -29279.431   -15951.748 
  963200    257.53591   -29187.697     122.8265   -29310.524    -21926.32 
  963400    276.31094   -29161.163    131.78087   -29292.943    17452.456 
  963600    268.93193   -29140.057     128.2616   -29268.319    30616.591 
  963800    307.59073   -29148.213    146.69913   -29294.912    20938.587 
  964000    299.81583   -29162.147    142.99104   -29305.138    4057.6284 
  964200    313.88376   -29130.801    149.70046   -29280.502   -13873.595 
  964400    290.46002   -29142.791    138.52898    -29281.32   -30746.567 
  964600    304.71538    -29165.69    145.32779   -29311.018   -35570.259 
  964800    320.40256   -29143.881    152.80947   -29296.691   -9087.0412 
  965000    303.10542    -29139.14    144.55995     -29283.7    14846.685 
  965200    285.07699   -29166.383    135.96166   -29302.345   -13490.918 
  965400    306.92831   -29143.616     146.3832       -29290   -33051.165 
  965600    300.50188   -29140.983    143.31824   -29284.301    33411.899 
  965800    295.63575   -29160.599    140.99744   -29301.596   -10053.078 
  966000    282.77422   -29160.973     134.8634   -29295.836   -3019.2956 
  966200    284.45611   -29132.868    135.66554   -29268.534    -9679.163 
  966400    288.43472   -29146.697    137.56306    -29284.26     17952.57 
  966600    280.18455   -29162.179    133.62831   -29295.808    15354.066 
  966800    293.46052   -29135.655    139.96001   -29275.615    18083.976 
  967000    297.80925    -29135.24    142.03405   -29277.274    13219.992 
  967200    307.41017   -29159.557    146.61301    -29306.17   -21351.957 
  967400     303.4936   -29144.882    144.74509   -29289.628    9937.6899 
  967600    288.92539   -29135.169    137.79707   -29272.966    27345.935 
  967800    289.26644   -29159.297    137.95973   -29297.257    13025.418 
  968000     281.0351   -29165.676    134.03396    -29299.71    10134.316 
  968200    334.27266   -29130.593    159.42453   -29290.017   -21784.712 
  968400    307.92278   -29153.225    146.85749   -29300.082    35975.967 
  968600     314.4847   -29153.503    149.98706    -29303.49   -3434.6673 
  968800    281.84014   -29141.689    134.41791   -29276.107    18528.311 
  969000    325.22351   -29130.059    155.10872   -29285.167   -19101.881 
  969200     308.7252   -29122.475    147.24019   -29269.715    14600.665 
  969400    294.46041   -29149.164    140.43689   -29289.601    3693.0878 
  969600    329.65159   -29125.883    157.22061   -29283.104    56930.154 
  969800    323.59166   -29134.248    154.33044   -29288.578   -38734.143 
  970000    308.37175   -29152.619    147.07162   -29299.691   -1403.1154 
  970200    305.91773   -29125.464    145.90122   -29271.365     6085.892 
  970400    292.75468    -29156.07    139.62337   -29295.693    17721.087 
  970600    279.14339   -29150.383    133.13175   -29283.514    -9644.924 
  970800    323.33655   -29129.791    154.20877       -29284    47002.492 
  971000    280.84085   -29161.816    133.94132   -29295.757    21363.717 
  971200    294.04605   -29151.002    140.23927   -29291.241    12770.059 
  971400    314.90662   -29137.175    150.18829   -29287.363   -2602.2436 
  971600    284.94389     -29150.6    135.89818   -29286.498   -5147.4632 
  971800     264.9173   -29167.022     126.3469   -29293.368    -26084.53 
  972000    291.01114   -29140.661    138.79183   -29279.453    3006.1421 
  972200    322.39664   -29138.206     153.7605   -29291.966    30336.393 
  972400    278.14061   -29166.784    132.65349   -29299.437   -26920.853 
  972600    309.03645   -29139.039    147.38863   -29286.427    7931.2376 
  972800    301.87332   -29139.081    143.97232   -29283.053    38023.168 
  973000    294.54434   -29151.755    140.47692   -29292.232    3515.8957 
  973200    275.44402   -29162.102    131.36741    -29293.47    24693.582 
  973400    294.98928   -29132.936    140.68912   -29273.625   -48066.732 
  973600    285.42411   -29152.919    136.12721   -29289.046   -24016.033 
  973800    270.94116   -29152.596    129.21986   -29281.816    16877.034 
  974000    298.60815   -29131.056    142.41507   -29273.471    26870.215 
  974200    277.11563   -29156.275    132.16465   -29288.439   -13542.578 
  974400    335.39035   -29125.461    159.95759   -29285.418   -17616.103 
  974600    275.23794   -29136.778    131.26912   -29268.047   -23359.979 
  974800    296.50974   -29144.743    141.41428   -29286.157   -22226.238 
  975000    351.47349   -29108.935    167.62811   -29276.563    14734.366 
  975200    280.05955   -29135.818    133.56869   -29269.387    42530.591 
  975400     294.5344   -29147.947    140.47218    -29288.42    9725.3639 
  975600    317.83467   -29135.054    151.58477   -29286.639    14541.498 
  975800    296.80553   -29135.458    141.55535   -29277.014   -36036.599 
  976000    304.07216    -29155.25    145.02102   -29300.271    40935.846 
  976200    285.59098   -29148.624     136.2068    -29284.83   -45013.674 
  976400    354.98542   -29120.549    169.30306   -29289.852   -17762.668 
  976600    276.83975   -29145.177    132.03307    -29277.21   -10387.374 
  976800    300.96871   -29151.814    143.54089   -29295.355    3109.3539 
  977000    335.62114   -29116.211    160.06766   -29276.279    23284.093 
  977200      338.424   -29129.442    161.40443   -29290.846    4574.8369 
  977400    308.71441   -29145.719    147.23504   -29292.954   -30098.579 
  977600    265.71386   -29152.831    126.72681   -29279.557    12626.194 
  977800    317.16796   -29121.223    151.26679    -29272.49   -14541.221 
  978000    294.18863    -29151.72    140.30727   -29292.028     23021.52 
  978200     281.1409   -29141.465    134.08442    -29275.55   -25219.686 
  978400     299.3653   -29136.123    142.77618   -29278.899   -8140.5517 
  978600    282.92598   -29164.074    134.93578    -29299.01   -27502.353 
  978800    316.45528   -29134.859    150.92689   -29285.786    3798.7652 
  979000    293.93666   -29136.999     140.1871   -29277.186   -9863.4587 
  979200    270.70827   -29165.135    129.10879   -29294.244    19539.206 
  979400    307.63461    -29143.79    146.72005    -29290.51    16616.653 
  979600    297.09781   -29136.951    141.69474   -29278.646    11227.754 
  979800    269.33772   -29167.391    128.45513   -29295.846    19607.027 
  980000    314.08537   -29141.242    149.79661   -29291.038    21482.156 
  980200    287.76946    -29136.74    137.24577   -29273.986   -8233.0224 
  980400    319.94762   -29154.592    152.59249   -29307.184    4792.2788 
  980600    288.40697   -29152.868    137.54982   -29290.417   -1931.5811 
  980800    309.54026   -29137.369    147.62892   -29284.998     6115.517 
  981000    278.24999   -29152.763    132.70566   -29285.469   -24207.366 
  981200    289.29247   -29142.063    137.97214   -29280.035    -43762.84 
  981400    319.16781   -29132.102    152.22058   -29284.322   -1583.5613 
  981600      272.409   -29161.495    129.91992   -29291.415    -7403.233 
  981800    294.28255   -29145.166    140.35206   -29285.518   -12512.192 
  982000    315.14215    -29127.14    150.30062   -29277.441    17891.925 
  982200    325.04623   -29140.699    155.02417   -29295.723   -42086.159 
  982400    291.43775   -29152.869    138.99529   -29291.864    46212.545 
  982600    326.56849   -29121.098    155.75018   -29276.848   -779.13702 
  982800    281.57374   -29154.272    134.29085   -29288.563    6998.2352 
  983000    308.02689   -29149.384    146.90715   -29296.291     7544.029 
  983200    305.63082   -29121.069    145.76439   -29266.834   -15828.029 
  983400    301.91912   -29136.618    143.99417   -29280.612    518.73603 
  983600    294.16556   -29146.808    140.29627   -29287.104    40772.082 
  983800    309.95858   -29138.448    147.82842   -29286.276    15608.275 
  984000    334.29149   -29145.814    159.43351   -29305.248    29479.464 
  984200    271.20339   -29157.161    129.34492   -29286.506    29599.366 
  984400    303.96206   -29124.219    144.96851   -29269.188    35030.771 
  984600    287.75743   -29140.937    137.24004   -29278.177    26008.424 
  984800    278.58841   -29151.472    132.86706   -29284.339    20637.505 
  985000    329.61152   -29130.773    157.20149   -29287.974    7510.4042 
  985200    277.66418    -29162.35    132.42627   -29294.776   -1932.4801 
  985400    314.89197   -29145.864     150.1813   -29296.045    13786.769 
  985600    313.84109   -29139.772    149.68011   -29289.452    11486.632 
  985800    272.01561    -29151.92     129.7323   -29281.653    30827.578 
  986000    282.90495   -29162.316    134.92575   -29297.242    -19260.48 
  986200     304.2511   -29130.491    145.10636   -29275.598    7384.9074 
  986400     297.9939   -29141.963    142.12212   -29284.085    -29618.67 
  986600    278.66079   -29169.756    132.90158   -29302.657   -5121.1666 
  986800    297.56774   -29136.605    141.91886   -29278.524    69574.621 
  987000    311.15636   -29137.141    148.39968    -29285.54    532.10449 
  987200    279.10793   -29161.455    133.11483    -29294.57   -19271.921 
  987400    296.02533   -29143.019    141.18324   -29284.202   -16499.035 
  987600     308.2869   -29134.799    147.03115    -29281.83   -9632.8529 
  987800    288.44258   -29158.133    137.56681     -29295.7   -45163.789 
  988000    336.29335    -29126.79    160.38826   -29287.178   -17611.971 
  988200    309.85906   -29140.675    147.78096   -29288.456    1016.7321 
  988400    298.24753   -29151.755    142.24308   -29293.998    6561.6366 
  988600     276.3092   -29144.646    131.78004   -29276.426    11748.973 
  988800    319.62115   -29115.777    152.43679   -29268.214   -31978.248 
  989000    281.13369   -29119.621    134.08098   -29253.702    23591.782 
  989200    307.66749   -29149.165    146.73574   -29295.901    3903.2931 
  989400    289.84139   -29156.479    138.23394   -29294.713   -6856.5969 
  989600     307.7678   -29127.034    146.78357   -29273.818   -8463.8043 
  989800    292.24362   -29151.936    139.37963   -29291.315    12484.902 
  990000    312.08136   -29145.993    148.84084   -29294.833    17993.205 
  990200    285.74215   -29145.273    136.27889   -29281.552   -7768.6808 
  990400    311.78487   -29140.239    148.69944   -29288.939    9778.5449 
  990600    270.05458   -29129.216    128.79703   -29258.013    15238.773 
  990800    319.70715   -29151.171     152.4778   -29303.649    9745.7296 
  991000    295.27236   -29163.078    140.82413   -29303.902   -6586.9948 
  991200    300.47945   -29125.669    143.30755   -29268.976   -23520.937 
  991400    278.81935   -29154.616     132.9772   -29287.593    47655.459 
  991600    293.75457   -29154.298    140.10025   -29294.398    801.60509 
  991800    271.02756   -29147.175    129.26107   -29276.436    3255.1172 
  992000    303.88254   -29140.736    144.93058   -29285.666    6117.6687 
  992200    326.02713   -29130.745    155.49199   -29286.237   -4917.0531 
  992400    293.85127   -29155.257    140.14637   -29295.403   -18218.893 
  992600    352.42919   -29131.802    168.08391   -29299.886   -32218.286 
  992800    264.41548   -29157.388    126.10757   -29283.495    3141.4171 
  993000    300.66047   -29149.362    143.39388   -29292.756   -18516.444 
  993200    278.42416   -29136.444    132.78873   -29269.232   -6713.3234 
  993400    289.90952   -29159.666    138.26644   -29297.933    10122.731 
  993600    302.82904   -29142.117    144.42814   -29286.545   -17888.428 
  993800    268.84003   -29131.777    128.21777   -29259.994    9127.1744 
  994000    271.70894   -29154.994    129.58604    -29284.58    56462.233 
  994200    301.93691   -29148.965    144.00265   -29292.967    28165.706 
  994400    300.50735     -29136.6    143.32085   -29279.921    397.26618 
  994600    291.13737   -29141.632    138.85203   -29280.484    17677.306 
  994800    336.16116   -29115.791    160.32521   -29276.116    17655.962 
  995000    296.28129   -29147.573    141.30532   -29288.878   -20016.587 
  995200    330.22228   -29134.932    157.49278   -29292.425   -5089.7404 
  995400    285.02601   -29159.574    135.93735   -29295.511    32980.195 
  995600    296.10729   -29150.578    141.22233   -29291.801    13407.609 
  995800    309.47991   -29136.472    147.60013   -29284.073     9630.511 
  996000    286.94298    -29150.84     136.8516   -29287.691    16578.217 
  996200    275.54719   -29169.386    131.41661   -29300.802    3424.2536 
  996400    323.22062   -29143.883    154.15348   -29298.036   -21517.353 
  996600    297.74243   -29141.445    142.00218   -29283.447    7366.8099 
  996800    282.76934   -29164.284    134.86107   -29299.145   -20379.802 
  997000    299.04929   -29147.357    142.62546   -29289.982    11637.941 
  997200    291.43945    -29134.93     138.9961   -29273.926   -18148.916 
  997400     281.8423   -29160.498    134.41894   -29294.917   -36151.873 
  997600    289.29515   -29154.336    137.97342    -29292.31    46974.572 
  997800    322.35167   -29135.068    153.73905   -29288.807    7294.6497 
  998000     281.8328   -29157.395    134.41441    -29291.81   -14585.914 
  998200    259.76985    -29153.48    123.89193   -29277.372   -4814.2399 
  998400     292.5758   -29134.905    139.53806   -29274.443   -33247.662 
  998600    288.93316   -29158.976    137.80078   -29296.776   -23769.085 
  998800     281.9948   -29162.368    134.49167    -29296.86    2042.3259 
  999000    320.21783   -29140.484    152.72137   -29293.206   -29340.497 
  999200    307.83562   -29133.464    146.81592    -29280.28   -196.78738 
  999400    285.09012    -29152.93    135.96792   -29288.898   -2331.9129 
  999600    301.08861   -29157.392    143.59807    -29300.99   -36995.828 
  999800    307.70783   -29129.331    146.75497   -29276.086     31594.88 
 1000000    288.93571   -29149.295      137.802   -29287.097    54023.929 
Loop time of 6128.14 on 8 procs for 1000000 steps with 161 atoms

Performance: 3.525 ns/day, 6.809 hours/ns, 163.182 timesteps/s
99.2% CPU use with 8 MPI tasks x no OpenMP threads

MPI task timing breakdown:
Section |  min time  |  avg time  |  max time  |%varavg| %total
---------------------------------------------------------------
Pair    | 4859.4     | 5145.3     | 5315.2     | 219.4 | 83.96
Neigh   | 0.83118    | 0.85302    | 0.87351    |   1.8 |  0.01
Comm    | 101.89     | 272        | 557.66     | 953.1 |  4.44
Output  | 0.11117    | 0.12927    | 0.24565    |  12.2 |  0.00
Modify  | 704.74     | 705.29     | 706.11     |   1.6 | 11.51
Other   |            | 4.546      |            |       |  0.07

Nlocal:    20.125 ave 43 max 1 min
Histogram: 1 1 2 0 1 1 0 0 0 2
Nghost:    750.375 ave 771 max 725 min
Histogram: 2 0 0 0 1 1 0 1 2 1
Neighs:    2083.25 ave 4216 max 108 min
Histogram: 1 1 2 0 0 2 0 0 0 2

Total # of neighbors = 16666
Ave neighs/atom = 103.516
Neighbor list builds = 859
Dangerous builds = 0

unfix 1
unfix output
undump 1

Please see the log.cite file for references relevant to this simulation

Total wall time: 1:42:31
