ITEM: TIMESTEP
0
ITEM: NUMBER OF ATOMS
33
ITEM: BOX BOUNDS pp pp pp
0.0000000000000000e+00 7.0970000000000004e+00
0.0000000000000000e+00 7.0970000000000004e+00
0.0000000000000000e+00 2.4588000000000001e+01
ITEM: ATOMS id type x y z 
2 1 3.339 1.632 13.319 
5 1 4.651 1.581 18.133 
7 1 3.391 1.602 15.981 
8 1 2.166 1.581 18.134 
18 1 3.408 1.581 17.416 
21 1 3.338 2.875 12.602 
23 1 3.367 1.619 14.753 
24 1 3.338 0.39 12.601 
33 2 1.989 1.632 13.319 
17 1 7.023 2.875 24.28 
19 1 6.997 1.619 22.129 
20 1 7.023 0.39 24.281 
22 1 6.957 1.581 19.466 
25 1 5.714 1.581 18.748 
27 1 6.974 1.602 20.9 
28 1 1.102 1.581 18.748 
30 1 7.024 1.631 23.563 
10 1 6.954 5.232 5.122 
13 1 7.023 3.938 0.307 
15 1 6.994 5.194 2.459 
16 1 7.023 6.423 0.307 
26 1 7.022 5.181 1.025 
29 1 5.711 5.232 5.839 
31 1 6.97 5.211 3.688 
32 1 1.098 5.232 5.84 
1 1 4.647 5.232 6.454 
3 1 3.388 5.211 8.606 
4 1 2.163 5.232 6.454 
6 1 3.338 5.182 11.269 
9 1 3.338 3.939 11.986 
11 1 3.365 5.194 9.834 
12 1 3.338 6.423 11.987 
14 1 3.404 5.232 7.171 
ITEM: TIMESTEP
10
ITEM: NUMBER OF ATOMS
33
ITEM: BOX BOUNDS pp pp pp
0.0000000000000000e+00 7.0970000000000004e+00
0.0000000000000000e+00 7.0970000000000004e+00
0.0000000000000000e+00 2.4588000000000001e+01
ITEM: ATOMS id type x y z 
2 1 3.40011 1.62296 13.318 
5 1 4.65535 1.58099 18.134 
7 1 3.39275 1.60321 15.9896 
8 1 2.16127 1.58063 18.1373 
18 1 3.40422 1.58105 17.4287 
21 1 3.39653 2.92364 12.5728 
23 1 3.43232 1.61664 14.8078 
24 1 3.39789 0.340301 12.574 
33 2 1.7336 1.63363 13.3186 
17 1 7.02312 2.87915 24.2843 
19 1 6.99784 1.61677 22.1211 
20 1 7.02306 0.386341 24.2859 
22 1 6.96009 1.582 19.4671 
25 1 5.71097 1.58127 18.7446 
27 1 6.97647 1.601 20.906 
28 1 1.10297 1.58078 18.746 
30 1 7.02314 1.63118 23.5636 
10 1 6.95405 5.23149 5.1225 
13 1 7.02251 3.93567 0.304405 
15 1 6.99475 5.19606 2.46333 
16 1 7.02278 6.42404 0.303672 
26 1 7.02146 5.18179 1.02459 
29 1 5.70578 5.23176 5.84398 
31 1 6.97228 5.21207 3.68317 
32 1 1.10115 5.2317 5.84219 
1 1 4.65174 5.2317 6.45245 
3 1 3.38839 5.21145 8.60448 
4 1 2.15846 5.2319 6.45123 
6 1 3.33351 5.18501 11.2549 
9 1 3.34545 3.94189 11.9875 
11 1 3.36383 5.19418 9.82663 
12 1 3.34565 6.42692 11.9866 
14 1 3.40348 5.23183 7.17005 
ITEM: TIMESTEP
20
ITEM: NUMBER OF ATOMS
33
ITEM: BOX BOUNDS pp pp pp
0.0000000000000000e+00 7.0970000000000004e+00
0.0000000000000000e+00 7.0970000000000004e+00
0.0000000000000000e+00 2.4588000000000001e+01
ITEM: ATOMS id type x y z 
2 1 3.24678 1.63347 13.3197 
5 1 4.65819 1.5819 18.139 
7 1 3.41362 1.59778 16.011 
8 1 2.15822 1.582 18.145 
18 1 3.40732 1.58232 17.4545 
21 1 3.51703 2.916 12.5766 
23 1 3.55337 1.6132 14.8079 
24 1 3.51519 0.350142 12.5823 
33 2 1.46158 1.62793 13.326 
17 1 7.02338 2.87812 24.286 
19 1 6.99699 1.61814 22.129 
20 1 7.02383 0.385743 24.2864 
22 1 6.9565 1.58032 19.4732 
25 1 5.71463 1.58112 18.7522 
27 1 6.9755 1.60065 20.9111 
28 1 1.09543 1.58154 18.7477 
30 1 7.02326 1.6323 23.5685 
10 1 6.9535 5.23176 5.11826 
13 1 7.02304 3.93663 0.303454 
15 1 6.99375 5.19509 2.45985 
16 1 7.02332 6.42493 0.302901 
26 1 7.02149 5.18086 1.02424 
29 1 5.71176 5.23196 5.8418 
31 1 6.97099 5.21118 3.68248 
32 1 1.09648 5.23208 5.84134 
1 1 4.65295 5.2323 6.45306 
3 1 3.39372 5.2113 8.58897 
4 1 2.15677 5.23203 6.44734 
6 1 3.30454 5.19327 11.2305 
9 1 3.38628 3.95143 11.9697 
11 1 3.35396 5.19496 9.81137 
12 1 3.38852 6.40702 11.9645 
14 1 3.40512 5.23153 7.16514 
ITEM: TIMESTEP
30
ITEM: NUMBER OF ATOMS
33
ITEM: BOX BOUNDS pp pp pp
0.0000000000000000e+00 7.0970000000000004e+00
0.0000000000000000e+00 7.0970000000000004e+00
0.0000000000000000e+00 2.4588000000000001e+01
ITEM: ATOMS id type x y z 
2 1 3.17985 1.63243 13.3322 
5 1 4.65703 1.58228 18.1475 
7 1 3.44324 1.59946 15.9944 
8 1 2.15648 1.58111 18.1484 
18 1 3.40448 1.58218 17.4605 
21 1 3.51855 2.90318 12.5878 
23 1 3.54739 1.61585 14.793 
24 1 3.51706 0.365777 12.5899 
33 2 1.45691 1.62982 13.3303 
17 1 7.02352 2.87791 24.2859 
19 1 6.99734 1.61869 22.1351 
20 1 7.02322 0.387639 24.2867 
22 1 6.95504 1.58132 19.4761 
25 1 5.72006 1.57893 18.7494 
27 1 6.97422 1.60163 20.9147 
28 1 1.09265 1.58096 18.7498 
30 1 7.02429 1.63169 23.5697 
10 1 6.95261 5.23305 5.11553 
13 1 7.02294 3.9365 0.303935 
15 1 6.99397 5.19363 2.45998 
16 1 7.02267 6.42388 0.30276 
26 1 7.02257 5.18108 1.02368 
29 1 5.71465 5.23173 5.83987 
31 1 6.96965 5.2117 3.68029 
32 1 1.09382 5.23217 5.84171 
1 1 4.65719 5.23194 6.44923 
3 1 3.3974 5.21271 8.58503 
4 1 2.15645 5.22975 6.44185 
6 1 3.28897 5.17776 11.2251 
9 1 3.41873 3.93639 11.9678 
11 1 3.34368 5.19313 9.80697 
12 1 3.42609 6.43127 11.9702 
14 1 3.40429 5.23345 7.15581 
ITEM: TIMESTEP
40
ITEM: NUMBER OF ATOMS
33
ITEM: BOX BOUNDS pp pp pp
0.0000000000000000e+00 7.0970000000000004e+00
0.0000000000000000e+00 7.0970000000000004e+00
0.0000000000000000e+00 2.4588000000000001e+01
ITEM: ATOMS id type x y z 
2 1 3.11686 1.63038 13.3231 
5 1 4.65314 1.58716 18.1494 
7 1 3.4718 1.60107 15.9844 
8 1 2.15892 1.58039 18.1474 
18 1 3.40627 1.57921 17.4565 
21 1 3.52086 2.89498 12.591 
23 1 3.53655 1.6163 14.7771 
24 1 3.52086 0.373482 12.5919 
33 2 1.46694 1.63077 13.3333 
17 1 7.02344 2.87735 24.286 
19 1 6.99649 1.61995 22.1348 
20 1 7.02392 0.387326 24.2876 
22 1 6.95465 1.58166 19.4755 
25 1 5.71735 1.57557 18.7513 
27 1 6.9734 1.60066 20.9155 
28 1 1.0949 1.58153 18.7501 
30 1 7.02495 1.63216 23.5718 
10 1 6.95268 5.23172 5.11458 
13 1 7.02244 3.9377 0.304927 
15 1 6.99268 5.19388 2.45813 
16 1 7.02323 6.42344 0.303071 
26 1 7.02344 5.18059 1.02232 
29 1 5.71354 5.23032 5.8391 
31 1 6.96961 5.21025 3.67828 
32 1 1.09521 5.23756 5.84181 
1 1 4.65609 5.23494 6.44856 
3 1 3.39187 5.2083 8.58901 
4 1 2.15856 5.22622 6.44038 
6 1 3.30537 5.1788 11.2285 
9 1 3.42653 3.92442 11.9766 
11 1 3.34608 5.19562 9.81255 
12 1 3.43298 6.44269 11.9786 
14 1 3.40536 5.2346 7.15801 
ITEM: TIMESTEP
50
ITEM: NUMBER OF ATOMS
33
ITEM: BOX BOUNDS pp pp pp
0.0000000000000000e+00 7.0970000000000004e+00
0.0000000000000000e+00 7.0970000000000004e+00
0.0000000000000000e+00 2.4588000000000001e+01
ITEM: ATOMS id type x y z 
2 1 3.1017 1.63198 13.3234 
5 1 4.65301 1.5817 18.1494 
7 1 3.47606 1.60053 15.985 
8 1 2.15904 1.5809 18.1472 
18 1 3.40667 1.58121 17.454 
21 1 3.5231 2.89494 12.59 
23 1 3.53745 1.61652 14.7818 
24 1 3.52384 0.372304 12.5901 
33 2 1.46475 1.63092 13.3334 
17 1 7.02374 2.87758 24.2863 
19 1 6.9967 1.61956 22.1348 
20 1 7.024 0.38756 24.2876 
22 1 6.955 1.58019 19.4754 
25 1 5.71649 1.58038 18.7515 
27 1 6.97298 1.6016 20.9149 
28 1 1.09583 1.58082 18.7498 
30 1 7.02445 1.63223 23.5718 
10 1 6.95295 5.23188 5.1143 
13 1 7.02314 3.93714 0.304466 
15 1 6.9936 5.1933 2.45823 
16 1 7.02344 6.42348 0.303021 
26 1 7.02241 5.18068 1.02232 
29 1 5.71332 5.23257 5.83911 
31 1 6.96893 5.21084 3.6785 
32 1 1.09491 5.23348 5.84234 
1 1 4.65596 5.2329 6.4486 
3 1 3.38929 5.2101 8.59016 
4 1 2.15917 5.23084 6.43931 
6 1 3.30712 5.18098 11.2305 
9 1 3.4282 3.929 11.9749 
11 1 3.34994 5.19448 9.81365 
12 1 3.43444 6.43563 11.9758 
14 1 3.40537 5.23279 7.15942 
ITEM: TIMESTEP
60
ITEM: NUMBER OF ATOMS
33
ITEM: BOX BOUNDS pp pp pp
0.0000000000000000e+00 7.0970000000000004e+00
0.0000000000000000e+00 7.0970000000000004e+00
0.0000000000000000e+00 2.4588000000000001e+01
ITEM: ATOMS id type x y z 
2 1 2.87647 1.64523 13.3221 
5 1 4.63991 1.5739 18.1656 
7 1 3.56213 1.60459 15.9438 
8 1 2.17069 1.58211 18.1327 
18 1 3.41598 1.58302 17.4352 
21 1 3.50517 2.87409 12.597 
23 1 3.50973 1.62033 14.7544 
24 1 3.51952 0.387916 12.5926 
33 2 1.46919 1.63511 13.3343 
17 1 7.02476 2.87612 24.2864 
19 1 6.99554 1.62039 22.1263 
20 1 7.02476 0.389485 24.2886 
22 1 6.96096 1.58245 19.4658 
25 1 5.71071 1.5762 18.7568 
27 1 6.96994 1.60351 20.9066 
28 1 1.10991 1.58194 18.7427 
30 1 7.02569 1.63204 23.5647 
10 1 6.95008 5.23569 5.11692 
13 1 7.02406 3.93536 0.30463 
15 1 6.99327 5.19087 2.46111 
16 1 7.02397 6.42474 0.302472 
26 1 7.02312 5.18064 1.02365 
29 1 5.70472 5.22994 5.83562 
31 1 6.96658 5.21215 3.68139 
32 1 1.103 5.2226 5.84423 
1 1 4.65251 5.22727 6.4532 
3 1 3.36156 5.2216 8.6088 
4 1 2.16616 5.25207 6.43578 
6 1 3.36863 5.1842 11.248 
9 1 3.47928 3.9068 11.9944 
11 1 3.38317 5.17512 9.83414 
12 1 3.47891 6.44591 11.9835 
14 1 3.40691 5.22759 7.17752 
ITEM: TIMESTEP
70
ITEM: NUMBER OF ATOMS
33
ITEM: BOX BOUNDS pp pp pp
0.0000000000000000e+00 7.0970000000000004e+00
0.0000000000000000e+00 7.0970000000000004e+00
0.0000000000000000e+00 2.4588000000000001e+01
ITEM: ATOMS id type x y z 
2 1 2.87216 1.64569 13.324 
5 1 4.63823 1.57364 18.168 
7 1 3.56558 1.60424 15.9411 
8 1 2.17166 1.58065 18.128 
18 1 3.42121 1.58167 17.4374 
21 1 3.49557 2.87115 12.6041 
23 1 3.50554 1.62593 14.7512 
24 1 3.51099 0.390073 12.5918 
33 2 1.44865 1.63633 13.3339 
17 1 7.02502 2.87596 24.2856 
19 1 6.99577 1.6208 22.1242 
20 1 7.02506 0.389446 24.2877 
22 1 6.96282 1.57884 19.4623 
25 1 5.71172 1.58085 18.7553 
27 1 6.97041 1.60287 20.9044 
28 1 1.11291 1.58416 18.7392 
30 1 7.02508 1.63219 23.5641 
10 1 6.95266 5.23 5.11982 
13 1 7.02428 3.93477 0.304726 
15 1 6.99265 5.19254 2.46169 
16 1 7.02444 6.42537 0.302781 
26 1 7.023 5.18057 1.0238 
29 1 5.70336 5.23053 5.83496 
31 1 6.96668 5.20922 3.68185 
32 1 1.1 5.23932 5.84399 
1 1 4.65331 5.23131 6.45629 
3 1 3.36872 5.20795 8.60993 
4 1 2.16729 5.2357 6.43526 
6 1 3.38829 5.18222 11.2468 
9 1 3.48965 3.90201 11.9972 
11 1 3.37191 5.18349 9.83602 
12 1 3.48784 6.44559 11.9847 
14 1 3.40454 5.23594 7.179 
ITEM: TIMESTEP
80
ITEM: NUMBER OF ATOMS
33
ITEM: BOX BOUNDS pp pp pp
0.0000000000000000e+00 7.0970000000000004e+00
0.0000000000000000e+00 7.0970000000000004e+00
0.0000000000000000e+00 2.4588000000000001e+01
ITEM: ATOMS id type x y z 
2 1 2.86265 1.64301 13.3268 
5 1 4.64366 1.58195 18.1681 
7 1 3.56481 1.6096 15.9424 
8 1 2.17441 1.57712 18.1165 
18 1 3.42856 1.57896 17.4264 
21 1 3.47216 2.87 12.6142 
23 1 3.49284 1.63421 14.7499 
24 1 3.48264 0.390366 12.5902 
33 2 1.41714 1.63727 13.334 
17 1 7.02454 2.87614 24.2843 
19 1 6.99687 1.62003 22.1193 
20 1 7.02503 0.388989 24.2855 
22 1 6.96951 1.58064 19.4522 
25 1 5.71292 1.5772 18.7624 
27 1 6.97261 1.60376 20.8999 
28 1 1.11808 1.58194 18.7311 
30 1 7.02476 1.63213 23.5605 
10 1 6.95239 5.23202 5.12239 
13 1 7.0242 3.93427 0.304463 
15 1 6.99378 5.19068 2.46369 
16 1 7.02444 6.42647 0.303281 
26 1 7.02305 5.18065 1.02422 
29 1 5.70175 5.23561 5.83789 
31 1 6.96616 5.21177 3.68358 
32 1 1.103 5.22577 5.84095 
1 1 4.65203 5.23319 6.46006 
3 1 3.36461 5.2049 8.61339 
4 1 2.16421 5.24154 6.44271 
6 1 3.41501 5.17673 11.2512 
9 1 3.51025 3.89971 12.0051 
11 1 3.39119 5.18502 9.83791 
12 1 3.5076 6.44424 11.9861 
14 1 3.40013 5.23515 7.18025 
ITEM: TIMESTEP
90
ITEM: NUMBER OF ATOMS
33
ITEM: BOX BOUNDS pp pp pp
0.0000000000000000e+00 7.0970000000000004e+00
0.0000000000000000e+00 7.0970000000000004e+00
0.0000000000000000e+00 2.4588000000000001e+01
ITEM: ATOMS id type x y z 
2 1 2.85831 1.64239 13.3278 
5 1 4.64382 1.57962 18.1674 
7 1 3.56496 1.61037 15.9414 
8 1 2.17501 1.57887 18.1148 
18 1 3.42929 1.5789 17.4274 
21 1 3.47138 2.87096 12.6146 
23 1 3.49144 1.63483 14.7493 
24 1 3.4808 0.389787 12.59 
33 2 1.4141 1.63714 13.3344 
17 1 7.0245 2.87598 24.2842 
19 1 6.99665 1.62044 22.1184 
20 1 7.02488 0.389018 24.2853 
22 1 6.97034 1.58068 19.4532 
25 1 5.71238 1.58019 18.7631 
27 1 6.97327 1.60304 20.8991 
28 1 1.1193 1.57969 18.7306 
30 1 7.02495 1.63213 23.5603 
10 1 6.95211 5.23125 5.12188 
13 1 7.02419 3.93425 0.304087 
15 1 6.99287 5.1914 2.46356 
16 1 7.02443 6.42662 0.303233 
26 1 7.02358 5.18061 1.02445 
29 1 5.70151 5.23396 5.83825 
31 1 6.96659 5.21044 3.68362 
32 1 1.10175 5.23144 5.84176 
1 1 4.65214 5.23486 6.46033 
3 1 3.36644 5.20568 8.61353 
4 1 2.16433 5.23639 6.442 
6 1 3.4207 5.17542 11.2519 
9 1 3.51176 3.90107 12.005 
11 1 3.38958 5.18439 9.8389 
12 1 3.50897 6.44355 11.9857 
14 1 3.40065 5.23564 7.18154 
ITEM: TIMESTEP
93
ITEM: NUMBER OF ATOMS
33
ITEM: BOX BOUNDS pp pp pp
0.0000000000000000e+00 7.0970000000000004e+00
0.0000000000000000e+00 7.0970000000000004e+00
0.0000000000000000e+00 2.4588000000000001e+01
ITEM: ATOMS id type x y z 
2 1 2.85827 1.64242 13.3278 
5 1 4.64383 1.57962 18.1674 
7 1 3.56495 1.61038 15.9413 
8 1 2.17502 1.57888 18.1148 
18 1 3.4293 1.5789 17.4274 
21 1 3.47135 2.87105 12.6145 
23 1 3.49141 1.63483 14.7494 
24 1 3.48077 0.38978 12.59 
33 2 1.41407 1.63714 13.3344 
17 1 7.02451 2.87598 24.2842 
19 1 6.99666 1.62044 22.1184 
20 1 7.02488 0.389018 24.2853 
22 1 6.97035 1.58069 19.4532 
25 1 5.71238 1.58019 18.7631 
27 1 6.97328 1.60303 20.8991 
28 1 1.1193 1.57969 18.7306 
30 1 7.02494 1.63213 23.5603 
10 1 6.95211 5.23124 5.12188 
13 1 7.02418 3.93425 0.304087 
15 1 6.99287 5.1914 2.46355 
16 1 7.02443 6.42662 0.303232 
26 1 7.02359 5.18061 1.02445 
29 1 5.70151 5.23395 5.83826 
31 1 6.96659 5.21043 3.68362 
32 1 1.10175 5.2315 5.84176 
1 1 4.65214 5.23487 6.46033 
3 1 3.36644 5.20569 8.61355 
4 1 2.16432 5.23634 6.44199 
6 1 3.42076 5.17542 11.2519 
9 1 3.51177 3.90095 12.0051 
11 1 3.3896 5.18438 9.8389 
12 1 3.50899 6.44356 11.9857 
14 1 3.40065 5.23564 7.18155 
ITEM: TIMESTEP
94
ITEM: NUMBER OF ATOMS
33
ITEM: BOX BOUNDS pp pp pp
0.0000000000000000e+00 7.0970000000000004e+00
0.0000000000000000e+00 7.0970000000000004e+00
0.0000000000000000e+00 2.4588000000000001e+01
ITEM: ATOMS id type x y z 
2 1 2.85827 1.64242 13.3278 
5 1 4.64383 1.57962 18.1674 
7 1 3.56495 1.61038 15.9413 
8 1 2.17502 1.57888 18.1148 
18 1 3.4293 1.5789 17.4274 
21 1 3.47135 2.87105 12.6145 
23 1 3.49141 1.63483 14.7494 
24 1 3.48077 0.38978 12.59 
33 2 1.41407 1.63714 13.3344 
17 1 7.02451 2.87598 24.2842 
19 1 6.99666 1.62044 22.1184 
20 1 7.02488 0.389018 24.2853 
22 1 6.97035 1.58069 19.4532 
25 1 5.71238 1.58019 18.7631 
27 1 6.97328 1.60303 20.8991 
28 1 1.1193 1.57969 18.7306 
30 1 7.02494 1.63213 23.5603 
10 1 6.95211 5.23124 5.12188 
13 1 7.02418 3.93425 0.304087 
15 1 6.99287 5.1914 2.46355 
16 1 7.02443 6.42662 0.303232 
26 1 7.02359 5.18061 1.02445 
29 1 5.70151 5.23395 5.83826 
31 1 6.96659 5.21043 3.68362 
32 1 1.10175 5.2315 5.84176 
1 1 4.65214 5.23487 6.46033 
3 1 3.36644 5.20569 8.61355 
4 1 2.16432 5.23634 6.44199 
6 1 3.42076 5.17542 11.2519 
9 1 3.51177 3.90095 12.0051 
11 1 3.3896 5.18438 9.8389 
12 1 3.50899 6.44356 11.9857 
14 1 3.40065 5.23564 7.18155 
ITEM: TIMESTEP
100
ITEM: NUMBER OF ATOMS
33
ITEM: BOX BOUNDS pp pp pp
-1.5315539985378719e-03 7.0985315539985372e+00
-1.1396658610055305e-03 7.0981396658610052e+00
-7.3764000000000008e-03 2.4595376399999999e+01
ITEM: ATOMS id type x y z 
2 1 2.85796 1.64183 13.3284 
5 1 4.64431 1.57898 18.171 
7 1 3.56495 1.60977 15.9434 
8 1 2.17442 1.57825 18.1183 
18 1 3.42926 1.57826 17.4305 
21 1 3.4713 2.87088 12.6147 
23 1 3.49137 1.63422 14.7509 
24 1 3.48073 0.388752 12.5901 
33 2 1.41315 1.63652 13.335 
17 1 7.02601 2.87577 24.2914 
19 1 6.99815 1.61982 22.1243 
20 1 7.02638 0.387996 24.2925 
22 1 6.97183 1.58006 19.4575 
25 1 5.71331 1.57956 18.767 
27 1 6.97476 1.6024 20.9042 
28 1 1.11827 1.57906 18.7345 
30 1 7.02644 1.63151 23.5671 
10 1 6.95358 5.23178 5.11758 
13 1 7.02568 3.93436 0.296889 
15 1 6.99435 5.19194 2.45767 
16 1 7.02593 6.42755 0.296033 
26 1 7.02509 5.18114 1.01769 
29 1 5.70243 5.23449 5.8344 
31 1 6.96807 5.21096 3.67843 
32 1 1.1007 5.23207 5.8379 
1 1 4.65263 5.23541 6.45683 
3 1 3.36637 5.20622 8.61136 
4 1 2.16371 5.23686 6.43848 
6 1 3.42073 5.17594 11.2513 
9 1 3.51176 3.90099 12.0049 
11 1 3.38955 5.1849 9.83741 
12 1 3.50898 6.44449 11.9855 
14 1 3.40059 5.23618 7.17849 
ITEM: TIMESTEP
110
ITEM: NUMBER OF ATOMS
33
ITEM: BOX BOUNDS pp pp pp
-3.6435064239882090e-03 7.1006435064239870e+00
-2.6177012325557035e-03 7.0996177012325550e+00
-1.2356467331497381e-02 2.4600356467331494e+01
ITEM: ATOMS id type x y z 
2 1 2.85755 1.64113 13.3289 
5 1 4.64506 1.57816 18.1734 
7 1 3.56493 1.60899 15.9445 
8 1 2.17352 1.57743 18.1206 
18 1 3.42921 1.57744 17.4326 
21 1 3.47116 2.87089 12.6147 
23 1 3.49125 1.63343 14.7522 
24 1 3.48062 0.387315 12.5902 
33 2 1.41191 1.63573 13.3354 
17 1 7.02809 2.87557 24.2963 
19 1 7.0002 1.61902 22.1281 
20 1 7.02845 0.3866 24.2974 
22 1 6.97389 1.57925 19.4604 
25 1 5.7145 1.57874 18.7695 
27 1 6.97682 1.60159 20.9078 
28 1 1.11693 1.57824 18.737 
30 1 7.0285 1.63071 23.5716 
10 1 6.95559 5.23246 5.11468 
13 1 7.02774 3.93444 0.291987 
15 1 6.99639 5.19263 2.45382 
16 1 7.028 6.42883 0.291131 
26 1 7.02716 5.18182 1.01313 
29 1 5.70363 5.23518 5.83184 
31 1 6.97011 5.21162 3.67481 
32 1 1.09944 5.23286 5.8354 
1 1 4.65337 5.23612 6.45442 
3 1 3.36627 5.20692 8.61011 
4 1 2.16269 5.23749 6.43601 
6 1 3.42076 5.17661 11.2509 
9 1 3.51175 3.90076 12.0051 
11 1 3.38949 5.18558 9.83619 
12 1 3.50898 6.44579 11.9855 
14 1 3.40048 5.23689 7.17643 
ITEM: TIMESTEP
120
ITEM: NUMBER OF ATOMS
33
ITEM: BOX BOUNDS pp pp pp
-3.9592910216917103e-03 7.1009592910216917e+00
-3.0820557247432045e-03 7.1000820557247417e+00
-1.3830548469510985e-02 2.4601830548469508e+01
ITEM: ATOMS id type x y z 
2 1 2.85749 1.64092 13.329 
5 1 4.64526 1.5779 18.1741 
7 1 3.56491 1.60874 15.9447 
8 1 2.17331 1.57717 18.1214 
18 1 3.42921 1.57719 17.4332 
21 1 3.47111 2.87092 12.6147 
23 1 3.4912 1.63318 14.7527 
24 1 3.48058 0.386837 12.5902 
33 2 1.41174 1.63548 13.3356 
17 1 7.0284 2.87553 24.2977 
19 1 7.00051 1.61877 22.1293 
20 1 7.02876 0.386139 24.2989 
22 1 6.9742 1.579 19.4613 
25 1 5.7146 1.57848 18.7703 
27 1 6.97713 1.60133 20.9089 
28 1 1.11681 1.57798 18.7377 
30 1 7.0288 1.63046 23.5729 
10 1 6.95589 5.23267 5.11382 
13 1 7.02805 3.93444 0.290523 
15 1 6.9967 5.19286 2.45271 
16 1 7.02831 6.42926 0.289666 
26 1 7.02747 5.18203 1.01178 
29 1 5.70377 5.23539 5.83111 
31 1 6.97042 5.21183 3.67371 
32 1 1.0993 5.23313 5.83467 
1 1 4.65352 5.23634 6.45369 
3 1 3.36626 5.20715 8.60976 
4 1 2.16249 5.23768 6.43527 
6 1 3.4208 5.17683 11.2507 
9 1 3.51175 3.90064 12.0051 
11 1 3.38949 5.1858 9.83582 
12 1 3.50898 6.44622 11.9855 
14 1 3.40046 5.23711 7.17582 
ITEM: TIMESTEP
122
ITEM: NUMBER OF ATOMS
33
ITEM: BOX BOUNDS pp pp pp
-3.9618471758990732e-03 7.1009618471758991e+00
-3.0877735225947668e-03 7.1000877735225938e+00
-1.3823615167669634e-02 2.4601823615167664e+01
ITEM: ATOMS id type x y z 
2 1 2.85749 1.64092 13.329 
5 1 4.64526 1.5779 18.1741 
7 1 3.56491 1.60874 15.9447 
8 1 2.17331 1.57717 18.1214 
18 1 3.42921 1.57718 17.4332 
21 1 3.47111 2.87092 12.6147 
23 1 3.4912 1.63318 14.7527 
24 1 3.48058 0.386831 12.5902 
33 2 1.41174 1.63548 13.3356 
17 1 7.02841 2.87553 24.2977 
19 1 7.00052 1.61877 22.1293 
20 1 7.02876 0.386133 24.2989 
22 1 6.9742 1.57899 19.4613 
25 1 5.7146 1.57848 18.7703 
27 1 6.97713 1.60132 20.9089 
28 1 1.11681 1.57798 18.7377 
30 1 7.02881 1.63046 23.5729 
10 1 6.95589 5.23267 5.11382 
13 1 7.02805 3.93444 0.290529 
15 1 6.9967 5.19286 2.45271 
16 1 7.02831 6.42926 0.289673 
26 1 7.02747 5.18204 1.01179 
29 1 5.70377 5.23539 5.83111 
31 1 6.97042 5.21183 3.67371 
32 1 1.0993 5.23313 5.83468 
1 1 4.65352 5.23634 6.45369 
3 1 3.36626 5.20715 8.60977 
4 1 2.16249 5.23768 6.43527 
6 1 3.4208 5.17683 11.2507 
9 1 3.51175 3.90064 12.0051 
11 1 3.38949 5.1858 9.83582 
12 1 3.50898 6.44623 11.9855 
14 1 3.40046 5.23712 7.17583 
ITEM: TIMESTEP
130
ITEM: NUMBER OF ATOMS
33
ITEM: BOX BOUNDS pp pp pp
-3.9618471758990732e-03 7.1009618471758991e+00
-3.0877735225947668e-03 7.1000877735225938e+00
-1.3823615167669634e-02 2.4601823615167664e+01
ITEM: ATOMS id type x y z 
2 1 2.85545 1.64123 13.3291 
5 1 4.64581 1.57775 18.1742 
7 1 3.5646 1.60922 15.9437 
8 1 2.17336 1.57721 18.1209 
18 1 3.42983 1.57721 17.433 
21 1 3.4692 2.87089 12.6152 
23 1 3.48924 1.63347 14.7526 
24 1 3.47832 0.386211 12.59 
33 2 1.41277 1.63541 13.3358 
17 1 7.02846 2.87597 24.2977 
19 1 7.00067 1.61883 22.1285 
20 1 7.02873 0.385712 24.2989 
22 1 6.97467 1.57914 19.4619 
25 1 5.71431 1.57843 18.7701 
27 1 6.97752 1.60113 20.9091 
28 1 1.11759 1.57806 18.7367 
30 1 7.02864 1.63046 23.5725 
10 1 6.95568 5.23245 5.11399 
13 1 7.02806 3.93391 0.29034 
15 1 6.99658 5.19315 2.45323 
16 1 7.02831 6.42973 0.289447 
26 1 7.02747 5.18207 1.01182 
29 1 5.70335 5.23511 5.83169 
31 1 6.9705 5.21135 3.67317 
32 1 1.09946 5.23466 5.83468 
1 1 4.6539 5.23641 6.45352 
3 1 3.36639 5.20746 8.61058 
4 1 2.16171 5.23653 6.4353 
6 1 3.42372 5.17679 11.2508 
9 1 3.51251 3.90021 12.0058 
11 1 3.39066 5.18563 9.83593 
12 1 3.50964 6.44647 11.9856 
14 1 3.4006 5.23712 7.17607 
ITEM: TIMESTEP
140
ITEM: NUMBER OF ATOMS
33
ITEM: BOX BOUNDS pp pp pp
-3.9618471758990732e-03 7.1009618471758991e+00
-3.0877735225947668e-03 7.1000877735225938e+00
-1.3823615167669634e-02 2.4601823615167664e+01
ITEM: ATOMS id type x y z 
2 1 2.84805 1.64128 13.329 
5 1 4.64757 1.5774 18.1745 
7 1 3.56383 1.61055 15.9435 
8 1 2.1739 1.5774 18.1191 
18 1 3.43148 1.57726 17.4326 
21 1 3.46488 2.87152 12.6165 
23 1 3.48461 1.63455 14.7524 
24 1 3.47244 0.385139 12.5898 
33 2 1.41151 1.63516 13.3366 
17 1 7.02834 2.87609 24.297 
19 1 7.00122 1.61878 22.1278 
20 1 7.02857 0.385676 24.2983 
22 1 6.97597 1.57937 19.4622 
25 1 5.7148 1.57829 18.7704 
27 1 6.97881 1.60094 20.9086 
28 1 1.11882 1.57825 18.7348 
30 1 7.02836 1.63045 23.5714 
10 1 6.95501 5.23275 5.1143 
13 1 7.02801 3.93361 0.290452 
15 1 6.99659 5.1932 2.45322 
16 1 7.02823 6.42994 0.289428 
26 1 7.02754 5.18213 1.01176 
29 1 5.70342 5.23488 5.83268 
31 1 6.97048 5.21127 3.67322 
32 1 1.09938 5.23472 5.83393 
1 1 4.65349 5.23603 6.45403 
3 1 3.36671 5.20802 8.61143 
4 1 2.16062 5.2364 6.43648 
6 1 3.43279 5.1761 11.2507 
9 1 3.51508 3.90031 12.007 
11 1 3.39495 5.18529 9.83676 
12 1 3.51187 6.44571 11.9854 
14 1 3.40042 5.23692 7.17685 
ITEM: TIMESTEP
150
ITEM: NUMBER OF ATOMS
33
ITEM: BOX BOUNDS pp pp pp
-3.9618471758990732e-03 7.1009618471758991e+00
-3.0877735225947668e-03 7.1000877735225938e+00
-1.3823615167669634e-02 2.4601823615167664e+01
ITEM: ATOMS id type x y z 
2 1 2.84254 1.64123 13.3291 
5 1 4.64818 1.57723 18.1742 
7 1 3.56327 1.6115 15.9429 
8 1 2.17491 1.57746 18.1172 
18 1 3.43279 1.57732 17.4328 
21 1 3.46163 2.87129 12.618 
23 1 3.48107 1.63549 14.7524 
24 1 3.46803 0.385316 12.5903 
33 2 1.4083 1.63502 13.3372 
17 1 7.02818 2.87579 24.2962 
19 1 7.00175 1.61869 22.1282 
20 1 7.02842 0.386019 24.2977 
22 1 6.97725 1.5794 19.4618 
25 1 5.71599 1.57821 18.771 
27 1 6.97989 1.60092 20.9073 
28 1 1.11922 1.57848 18.7341 
30 1 7.02815 1.63044 23.5709 
10 1 6.95463 5.23288 5.11441 
13 1 7.02795 3.93386 0.290737 
15 1 6.9966 5.1932 2.45259 
16 1 7.02818 6.42967 0.28961 
26 1 7.02761 5.18214 1.01169 
29 1 5.70352 5.2347 5.83339 
31 1 6.9704 5.21129 3.67386 
32 1 1.09928 5.23478 5.83353 
1 1 4.653 5.23588 6.45459 
3 1 3.36712 5.20804 8.61174 
4 1 2.15987 5.23628 6.43738 
6 1 3.44021 5.17558 11.2503 
9 1 3.51737 3.90024 12.0079 
11 1 3.39868 5.18528 9.83678 
12 1 3.51376 6.44493 11.9852 
14 1 3.39996 5.23682 7.17736 
ITEM: TIMESTEP
160
ITEM: NUMBER OF ATOMS
33
ITEM: BOX BOUNDS pp pp pp
-3.9618471758990732e-03 7.1009618471758991e+00
-3.0877735225947668e-03 7.1000877735225938e+00
-1.3823615167669634e-02 2.4601823615167664e+01
ITEM: ATOMS id type x y z 
2 1 2.78632 1.64055 13.3294 
5 1 4.65822 1.57606 18.174 
7 1 3.55729 1.62108 15.9374 
8 1 2.18212 1.57871 18.102 
18 1 3.4455 1.5781 17.4319 
21 1 3.42774 2.87382 12.6297 
23 1 3.44465 1.64529 14.7513 
24 1 3.42252 0.379216 12.5899 
33 2 1.37097 1.63375 13.3435 
17 1 7.02674 2.87832 24.2914 
19 1 7.00721 1.61778 22.124 
20 1 7.02694 0.384289 24.2938 
22 1 6.99118 1.58019 19.4589 
25 1 5.72497 1.5774 18.7744 
27 1 6.99176 1.60069 20.9042 
28 1 1.12745 1.57942 18.7206 
30 1 7.02588 1.63045 23.5661 
10 1 6.95067 5.23369 5.11505 
13 1 7.02739 3.93131 0.290665 
15 1 6.99645 5.19314 2.45369 
16 1 7.02761 6.43151 0.288552 
26 1 7.02825 5.18227 1.01111 
29 1 5.70213 5.2339 5.84166 
31 1 6.96949 5.21173 3.67295 
32 1 1.09813 5.23482 5.83017 
1 1 4.65053 5.23429 6.45905 
3 1 3.37219 5.20775 8.6144 
4 1 2.15171 5.23535 6.44577 
6 1 3.51828 5.17059 11.2499 
9 1 3.54106 3.89511 12.02 
11 1 3.43862 5.18535 9.83864 
12 1 3.53273 6.44397 11.9869 
14 1 3.39506 5.2355 7.18121 
ITEM: TIMESTEP
161
ITEM: NUMBER OF ATOMS
33
ITEM: BOX BOUNDS pp pp pp
-3.9618471758990732e-03 7.1009618471758991e+00
-3.0877735225947668e-03 7.1000877735225938e+00
-1.3823615167669634e-02 2.4601823615167664e+01
ITEM: ATOMS id type x y z 
2 1 2.78632 1.64055 13.3294 
5 1 4.65822 1.57606 18.174 
7 1 3.55729 1.62108 15.9374 
8 1 2.18212 1.57871 18.102 
18 1 3.4455 1.5781 17.4319 
21 1 3.42774 2.87382 12.6297 
23 1 3.44465 1.64529 14.7513 
24 1 3.42252 0.379216 12.5899 
33 2 1.37097 1.63375 13.3435 
17 1 7.02674 2.87832 24.2914 
19 1 7.00721 1.61778 22.124 
20 1 7.02694 0.384289 24.2938 
22 1 6.99118 1.58019 19.4589 
25 1 5.72497 1.5774 18.7744 
27 1 6.99176 1.60069 20.9042 
28 1 1.12745 1.57942 18.7206 
30 1 7.02588 1.63045 23.5661 
10 1 6.95067 5.23369 5.11505 
13 1 7.02739 3.93131 0.290665 
15 1 6.99645 5.19314 2.45369 
16 1 7.02761 6.43151 0.288552 
26 1 7.02825 5.18227 1.01111 
29 1 5.70213 5.2339 5.84166 
31 1 6.96949 5.21173 3.67295 
32 1 1.09813 5.23482 5.83017 
1 1 4.65053 5.23429 6.45905 
3 1 3.37219 5.20775 8.6144 
4 1 2.15171 5.23535 6.44577 
6 1 3.51828 5.17059 11.2499 
9 1 3.54106 3.89511 12.02 
11 1 3.43862 5.18535 9.83864 
12 1 3.53273 6.44397 11.9869 
14 1 3.39506 5.2355 7.18121 
ITEM: TIMESTEP
170
ITEM: NUMBER OF ATOMS
33
ITEM: BOX BOUNDS pp pp pp
-4.2885812551874515e-03 7.1012885812551874e+00
-4.3381582109559887e-03 7.1013381582109547e+00
-2.0348942414273881e-02 2.4608348942414267e+01
ITEM: ATOMS id type x y z 
2 1 2.78626 1.63989 13.3299 
5 1 4.65859 1.57537 18.1772 
7 1 3.55726 1.62041 15.9392 
8 1 2.18179 1.57802 18.1052 
18 1 3.4455 1.57741 17.4346 
21 1 3.42768 2.87362 12.6299 
23 1 3.44459 1.64463 14.7526 
24 1 3.42247 0.378045 12.59 
33 2 1.37074 1.63308 13.344 
17 1 7.02705 2.87805 24.2977 
19 1 7.00753 1.6171 22.1292 
20 1 7.02728 0.383195 24.3002 
22 1 6.9915 1.5795 19.4626 
25 1 5.72499 1.57671 18.7777 
27 1 6.99209 1.6 20.9087 
28 1 1.12739 1.57872 18.7239 
30 1 7.0262 1.62977 23.5721 
10 1 6.95099 5.23428 5.11124 
13 1 7.02772 3.93149 0.284328 
15 1 6.99676 5.19372 2.44846 
16 1 7.02789 6.43249 0.282193 
26 1 7.02858 5.18285 1.00513 
29 1 5.70234 5.2345 5.83822 
31 1 6.9698 5.21231 3.66839 
32 1 1.09795 5.23541 5.82678 
1 1 4.65061 5.23489 6.45597 
3 1 3.3722 5.20832 8.61256 
4 1 2.15153 5.23594 6.44264 
6 1 3.51833 5.17117 11.2494 
9 1 3.54106 3.89517 12.0199 
11 1 3.43864 5.18593 9.83726 
12 1 3.53273 6.44502 11.9868 
14 1 3.39502 5.23609 7.17851 
ITEM: TIMESTEP
180
ITEM: NUMBER OF ATOMS
33
ITEM: BOX BOUNDS pp pp pp
-4.2961635122713880e-03 7.1012961635122718e+00
-4.3520316006963114e-03 7.1013520316006984e+00
-2.0365505696851211e-02 2.4608365505696838e+01
ITEM: ATOMS id type x y z 
2 1 2.78626 1.63989 13.3299 
5 1 4.6586 1.57537 18.1772 
7 1 3.55726 1.6204 15.9392 
8 1 2.18178 1.57801 18.1052 
18 1 3.4455 1.5774 17.4346 
21 1 3.42768 2.87362 12.6299 
23 1 3.44459 1.64462 14.7526 
24 1 3.42247 0.378029 12.59 
33 2 1.37074 1.63307 13.344 
17 1 7.02706 2.87804 24.2977 
19 1 7.00754 1.6171 22.1292 
20 1 7.02728 0.383183 24.3002 
22 1 6.99151 1.57949 19.4626 
25 1 5.72499 1.5767 18.7778 
27 1 6.9921 1.6 20.9087 
28 1 1.12739 1.57871 18.7239 
30 1 7.02621 1.62976 23.5721 
10 1 6.95099 5.23428 5.11123 
13 1 7.02773 3.9315 0.284313 
15 1 6.99677 5.19373 2.44845 
16 1 7.0279 6.43251 0.282177 
26 1 7.02859 5.18286 1.00511 
29 1 5.70235 5.2345 5.83822 
31 1 6.96981 5.21232 3.66838 
32 1 1.09795 5.23542 5.82678 
1 1 4.65061 5.23489 6.45596 
3 1 3.3722 5.20833 8.61256 
4 1 2.15152 5.23594 6.44263 
6 1 3.51834 5.17118 11.2494 
9 1 3.54106 3.89517 12.0199 
11 1 3.43864 5.18593 9.83725 
12 1 3.53273 6.44503 11.9868 
14 1 3.39502 5.23609 7.1785 
ITEM: TIMESTEP
190
ITEM: NUMBER OF ATOMS
33
ITEM: BOX BOUNDS pp pp pp
-4.6659629516611944e-03 7.1016659629516612e+00
-4.5986217640846616e-03 7.1015986217640883e+00
-2.1555528871163632e-02 2.4609555528871152e+01
ITEM: ATOMS id type x y z 
2 1 2.78619 1.63977 13.3301 
5 1 4.65887 1.57523 18.1779 
7 1 3.55724 1.62028 15.9395 
8 1 2.18152 1.57788 18.1058 
18 1 3.44549 1.57727 17.435 
21 1 3.42763 2.87364 12.6299 
23 1 3.44454 1.64449 14.753 
24 1 3.42243 0.377747 12.59 
33 2 1.37049 1.63294 13.3441 
17 1 7.02742 2.87799 24.2989 
19 1 7.00791 1.61696 22.1301 
20 1 7.02765 0.382959 24.3013 
22 1 6.99187 1.57936 19.4633 
25 1 5.72513 1.57656 18.7783 
27 1 6.99247 1.59986 20.9096 
28 1 1.12723 1.57857 18.7245 
30 1 7.02657 1.62962 23.5732 
10 1 6.95135 5.2344 5.11053 
13 1 7.02809 3.93154 0.283161 
15 1 6.99713 5.19384 2.44751 
16 1 7.02826 6.4327 0.281012 
26 1 7.02895 5.18297 1.00403 
29 1 5.70258 5.23462 5.83759 
31 1 6.97016 5.21243 3.66753 
32 1 1.09774 5.23554 5.82619 
1 1 4.65072 5.23501 6.4554 
3 1 3.37221 5.20844 8.61231 
4 1 2.15133 5.23606 6.44204 
6 1 3.51838 5.1713 11.2493 
9 1 3.54107 3.89511 12.0199 
11 1 3.43865 5.18605 9.83694 
12 1 3.53273 6.44527 11.9868 
14 1 3.39499 5.23621 7.17801 
ITEM: TIMESTEP
192
ITEM: NUMBER OF ATOMS
33
ITEM: BOX BOUNDS pp pp pp
-4.6659629516611944e-03 7.1016659629516612e+00
-4.5986217640846616e-03 7.1015986217640883e+00
-2.1555528871163632e-02 2.4609555528871152e+01
ITEM: ATOMS id type x y z 
2 1 2.78619 1.63978 13.3301 
5 1 4.65889 1.57523 18.1779 
7 1 3.55724 1.62028 15.9394 
8 1 2.18151 1.57788 18.1058 
18 1 3.44549 1.57727 17.435 
21 1 3.42763 2.87365 12.6298 
23 1 3.44453 1.64449 14.753 
24 1 3.42242 0.37774 12.59 
33 2 1.37049 1.63294 13.3441 
17 1 7.02742 2.87799 24.2989 
19 1 7.00791 1.61696 22.1301 
20 1 7.02765 0.382958 24.3013 
22 1 6.99187 1.57936 19.4633 
25 1 5.72512 1.57656 18.7783 
27 1 6.99247 1.59986 20.9096 
28 1 1.12724 1.57857 18.7244 
30 1 7.02657 1.62962 23.5732 
10 1 6.95135 5.2344 5.11053 
13 1 7.02809 3.93154 0.283161 
15 1 6.99713 5.19384 2.44751 
16 1 7.02826 6.43271 0.281011 
26 1 7.02895 5.18297 1.00403 
29 1 5.70258 5.23462 5.83759 
31 1 6.97016 5.21243 3.66753 
32 1 1.09776 5.23554 5.8262 
1 1 4.65072 5.23501 6.4554 
3 1 3.37221 5.20844 8.61232 
4 1 2.15132 5.23606 6.44203 
6 1 3.51839 5.17131 11.2493 
9 1 3.54107 3.8951 12.0199 
11 1 3.43866 5.18605 9.83692 