ITEM: TIMESTEP
0
ITEM: NUMBER OF ATOMS
163
ITEM: BOX BOUNDS xy xz yz pp pp pp
-6.7755000000000001e+00 1.3552000000000000e+01 -6.7755000000000001e+00
0.0000000000000000e+00 1.1735510246683001e+01 0.0000000000000000e+00
0.0000000000000000e+00 2.2149999999999999e+01 0.0000000000000000e+00
ITEM: ATOMS id type x y z 
8 1 -2.486 5.297 9.849 
87 1 3.001 4.231 10.696 
90 1 2.733 5.481 9.824 
109 1 -2.486 5.297 0.765 
158 1 2.733 5.481 0.79 
11 1 4.24 4.139 20.131 
14 1 3.031 4.094 19.728 
18 1 1.299 5.827 18.554 
33 1 2.266 4.151 20.924 
43 1 4.343 3.96 21.647 
47 1 3.32 5.732 17.88 
52 1 4.24 4.139 12.633 
76 1 2.552 4.924 14.209 
85 1 4.343 3.96 11.117 
89 1 3.32 5.732 14.883 
91 1 1.036 5.037 11.84 
102 1 3.031 4.094 13.035 
105 1 1.299 5.827 14.209 
114 1 2.266 4.151 11.84 
150 1 2.552 4.924 18.554 
156 1 3.001 4.231 22.068 
159 1 1.036 5.037 20.924 
5 1 -5.049 10.63 8.653 
9 1 -3.317 8.897 7.479 
19 1 -1.707 7.414 10.572 
21 1 -2.66 8.795 10.993 
23 1 -3.31 7.532 6.805 
25 1 -4.284 10.573 9.849 
32 1 1.503 6.367 0.79 
36 1 -1.869 7.426 9.056 
38 1 -2.209 6.086 8.653 
54 1 0.3 8.576 10.696 
57 1 1.291 8.001 9.824 
60 1 -1.707 7.414 0.042 
65 1 -3.31 7.532 3.808 
78 1 -1.869 7.426 1.558 
80 1 -2.566 8.842 1.961 
84 1 -4.57 9.799 3.135 
99 1 -3.054 9.687 0.765 
100 1 -2.96 6.142 3.135 
107 1 -5.049 10.63 1.961 
110 1 -3.317 8.897 3.135 
111 1 0.642 5.929 10.696 
113 1 1.503 6.367 9.824 
119 1 -4.284 10.573 0.765 
127 1 -2.209 6.086 1.961 
131 1 -2.318 6.148 10.993 
138 1 1.291 8.001 0.79 
142 1 -2.566 8.842 8.653 
145 1 -4.57 9.799 7.479 
151 1 -5.019 10.493 10.993 
154 1 -3.054 9.687 9.849 
155 1 -2.96 6.142 7.479 
12 1 2.53 7.1 17.202 
17 1 0.468 9.427 20.924 
24 1 -3.52 8.357 11.865 
27 1 -0.31 7.31 21.647 
29 1 0.642 5.929 22.068 
31 1 1.292 7.192 17.88 
44 1 -0.148 7.298 20.131 
46 1 0.191 8.638 19.728 
51 1 -0.31 7.31 11.117 
53 1 2.53 7.1 15.561 
56 1 1.292 7.192 14.883 
63 1 -2.318 6.148 21.771 
66 1 -3.309 6.723 20.899 
70 1 -0.148 7.298 12.633 
72 1 0.548 5.882 13.035 
92 1 0.942 8.582 14.209 
95 1 -5.019 10.493 21.771 
98 1 -4.751 9.243 20.899 
104 1 0.468 9.427 11.84 
116 1 -2.66 8.795 21.771 
118 1 -3.52 8.357 20.899 
122 1 0.191 8.638 13.035 
133 1 -3.309 6.723 11.865 
136 1 0.3 8.576 22.068 
147 1 0.548 5.882 19.728 
153 1 -4.751 9.243 11.865 
160 1 0.942 8.582 18.554 
161 2 0.418 9.757 14.616 
162 2 -0.177 11.147 14.551 
1 1 7.976 4.694 10.572 
4 1 9.274 4.77 10.993 
20 1 8.034 4.861 9.056 
42 1 9.55 5.41 7.479 
67 1 10.043 4.578 0.765 
77 1 7.976 4.694 0.042 
94 1 8.035 4.861 1.558 
96 1 9.278 4.635 1.961 
121 1 4.688 5.417 10.696 
130 1 9.55 5.41 3.135 
134 1 10.043 4.578 9.849 
152 1 9.278 4.635 8.653 
45 1 4.688 5.417 22.068 
55 1 4.788 5.329 13.035 
106 1 9.274 4.77 21.771 
137 1 4.788 5.329 19.728 
2 1 7.294 10.585 9.056 
3 1 9.004 7.624 6.127 
6 1 8.556 6.347 6.805 
16 1 2.314 8.72 0.79 
22 1 7.166 6.156 8.653 
26 1 7.226 8.565 7.479 
35 1 7.191 10.764 10.572 
37 1 6.846 9.307 10.993 
39 1 8.214 8.992 6.805 
41 1 6.677 7.002 9.849 
48 1 3.775 6.213 0.79 
61 1 7.294 10.585 1.558 
62 1 9.004 7.624 4.487 
64 1 6.747 9.395 1.961 
68 1 7.437 6.931 3.135 
71 1 4.29 8.493 10.696 
74 1 3.567 7.818 9.824 
81 1 8.556 6.347 3.808 
83 1 6.47 8.606 0.765 
93 1 7.191 10.764 0.042 
97 1 8.214 8.992 3.808 
101 1 2.261 9.954 10.696 
103 1 2.314 8.72 9.824 
117 1 7.166 6.156 1.961 
120 1 7.226 8.565 3.135 
123 1 3.775 6.213 9.824 
129 1 6.677 7.002 0.765 
132 1 6.747 9.395 8.653 
135 1 7.437 6.931 7.479 
141 1 7.244 6.231 10.993 
144 1 6.47 8.606 9.849 
148 1 3.567 7.818 0.79 
7 1 9.22 6.004 11.865 
10 1 3.558 10.029 21.647 
13 1 2.261 9.954 22.068 
15 1 2.978 8.376 17.88 
28 1 3.5 9.862 20.131 
30 1 4.369 8.568 19.728 
34 1 4.308 6.159 18.554 
40 1 7.76 8.511 11.865 
49 1 4.857 7.722 20.924 
50 1 1.984 9.314 18.554 
58 1 1.491 10.146 11.84 
59 1 4.097 7.793 14.209 
69 1 3.558 10.029 11.117 
73 1 2.978 8.376 14.883 
75 1 5.064 6.118 11.84 
79 1 7.244 6.231 21.771 
82 1 7.967 6.906 20.899 
86 1 3.5 9.862 12.633 
88 1 2.256 10.089 13.035 
108 1 9.22 6.004 20.899 
112 1 4.369 8.568 13.035 
115 1 4.308 6.159 14.209 
124 1 4.857 7.722 11.84 
125 1 1.984 9.314 14.209 
126 1 6.846 9.307 21.771 
128 1 7.76 8.511 20.899 
139 1 1.491 10.146 20.924 
140 1 4.097 7.793 18.554 
143 1 7.967 6.906 11.865 
146 1 4.29 8.493 22.068 
149 1 5.064 6.118 20.924 
157 1 2.256 10.089 19.728 
163 3 0.639 11.661 14.624 
ITEM: TIMESTEP
10
ITEM: NUMBER OF ATOMS
163
ITEM: BOX BOUNDS xy xz yz pp pp pp
-6.7755000000000001e+00 1.3552000000000000e+01 -6.7755000000000001e+00
0.0000000000000000e+00 1.1735510246683001e+01 0.0000000000000000e+00
0.0000000000000000e+00 2.2149999999999999e+01 0.0000000000000000e+00
ITEM: ATOMS id type x y z 
8 1 -2.44779 5.38252 9.82958 
87 1 2.99003 4.28829 10.6246 
90 1 2.65312 5.46927 9.74577 
109 1 -2.44789 5.38311 0.786307 
158 1 2.67309 5.45091 0.864153 
11 1 4.29421 4.25062 20.0776 
14 1 2.89449 4.13997 19.7032 
18 1 1.33186 5.86702 18.5849 
33 1 2.08996 4.27937 20.9207 
43 1 4.32886 4.14961 21.5727 
47 1 3.2369 5.79391 17.8495 
52 1 4.30039 4.19987 12.6808 
76 1 2.39042 4.8808 14.207 
85 1 4.32658 4.15371 11.169 
89 1 3.24346 5.79787 14.9334 
91 1 0.937015 5.06733 11.8698 
102 1 2.88426 4.11661 13.0731 
105 1 1.35311 5.92456 14.1797 
114 1 2.1231 4.22283 11.8321 
150 1 2.42515 4.91058 18.58 
156 1 2.9612 4.28928 22.111 
159 1 0.951417 5.11062 20.9145 
5 1 -4.92059 10.5904 8.63529 
9 1 -3.37258 8.87103 7.51531 
19 1 -1.73144 7.54375 10.5457 
21 1 -2.59093 8.79 10.9511 
23 1 -3.30324 7.53304 6.80898 
25 1 -4.09724 10.4463 9.83514 
32 1 1.57633 6.38261 0.772308 
36 1 -1.89186 7.55471 9.06098 
38 1 -2.14768 6.22713 8.66444 
54 1 0.337476 8.48052 10.627 
57 1 1.30059 7.91296 9.80386 
60 1 -1.73463 7.54489 0.0780904 
65 1 -3.2982 7.54104 3.80149 
78 1 -1.89097 7.55092 1.54518 
80 1 -2.569 8.80156 1.90213 
84 1 -4.44892 9.8163 3.11399 
99 1 -2.97718 9.60839 0.788055 
100 1 -2.92019 6.23026 3.17012 
107 1 -4.91507 10.5878 1.98141 
110 1 -3.3691 8.8705 3.09963 
111 1 0.594599 5.95841 10.8109 
113 1 1.59312 6.39779 9.86207 
119 1 -4.09189 10.4439 0.779247 
127 1 -2.14716 6.22887 1.94619 
131 1 -2.347 6.24334 11.0391 
138 1 1.30251 7.94546 0.800846 
142 1 -2.5719 8.80167 8.70944 
145 1 -4.45133 9.82382 7.50086 
151 1 -4.99998 10.3864 11.0598 
154 1 -2.97537 9.60652 9.82589 
155 1 -2.92588 6.22821 7.44207 
12 1 2.56889 7.05303 17.1314 
17 1 0.429019 9.32765 20.905 
24 1 -3.52385 8.33904 11.8612 
27 1 -0.275828 7.16284 21.626 
29 1 0.61896 5.96627 22.0289 
31 1 1.28747 7.18857 17.8992 
44 1 -0.120234 7.1736 20.1345 
46 1 0.137758 8.4938 19.7452 
51 1 -0.300627 7.21944 11.1235 
53 1 2.52817 7.03655 15.6669 
56 1 1.33242 7.15387 14.8489 
63 1 -2.34672 6.24363 21.7264 
66 1 -3.32841 6.80515 20.882 
70 1 -0.131681 7.16489 12.6076 
72 1 0.512927 5.93647 12.9042 
92 1 0.759869 8.6163 14.3496 
95 1 -5.01469 10.3672 21.7022 
98 1 -4.67261 9.21572 20.8389 
104 1 0.407563 9.3471 11.8179 
116 1 -2.58 8.79162 21.8178 
118 1 -3.52061 8.33841 20.8964 
122 1 0.141041 8.52343 13.0193 
133 1 -3.3283 6.80651 11.8809 
136 1 0.337527 8.4889 22.1055 
147 1 0.54152 5.93389 19.7826 
153 1 -4.67842 9.21965 11.9196 
160 1 0.907071 8.47002 18.5152 
161 2 0.413678 9.63304 14.6791 
162 2 -0.190016 11.1722 14.5534 
1 1 7.83171 4.97859 10.5003 
4 1 9.17773 4.79965 11.0513 
20 1 7.83517 4.97606 9.05387 
42 1 9.4359 5.44516 7.44893 
67 1 9.97545 4.61241 0.75206 
77 1 7.83627 4.97615 0.112198 
94 1 7.85206 4.95917 1.55014 
96 1 9.17545 4.66824 1.98535 
121 1 4.62773 5.45924 10.6869 
130 1 9.43468 5.44041 3.16475 
134 1 9.97917 4.61065 9.85672 
152 1 9.18071 4.66891 8.62326 
45 1 4.63379 5.46381 22.0674 
55 1 4.86598 5.51162 13.1092 
106 1 9.17457 4.80693 21.7194 
137 1 4.81536 5.48734 19.6843 
2 1 7.24816 10.476 9.02464 
3 1 8.94728 7.6393 6.02611 
6 1 8.52664 6.40874 6.86218 
16 1 2.42219 8.72315 0.830107 
22 1 7.13633 6.18444 8.6767 
26 1 7.21594 8.39719 7.54587 
35 1 7.24187 10.5418 10.5001 
37 1 6.88764 9.24642 11.0182 
39 1 8.28882 8.92697 6.81747 
41 1 6.71963 6.99209 9.8072 
48 1 3.66661 6.37873 0.848787 
61 1 7.24724 10.496 1.60424 
62 1 8.94389 7.64861 4.58727 
64 1 6.71324 9.20262 2.02095 
68 1 7.40888 7.00364 3.0475 
71 1 4.3377 8.55175 10.7642 
74 1 3.60164 7.83024 9.79896 
81 1 8.53284 6.4062 3.76108 
83 1 6.55181 8.44133 0.79479 
93 1 7.23729 10.5684 0.114107 
97 1 8.28062 8.92473 3.79508 
101 1 2.35743 9.93846 10.645 
103 1 2.41533 8.72068 9.76426 
117 1 7.13056 6.15813 1.95634 
120 1 7.22179 8.39824 3.07133 
123 1 3.66031 6.37827 9.76209 
129 1 6.70245 7.00821 0.783378 
132 1 6.71896 9.21 8.60374 
135 1 7.41535 6.98595 7.58893 
141 1 7.21727 6.16024 10.9077 
144 1 6.56191 8.4429 9.82535 
148 1 3.58902 7.82107 0.826015 
7 1 9.13621 6.00224 11.9062 
10 1 3.69668 9.74323 21.5849 
13 1 2.35416 9.9349 22.1221 
15 1 3.01984 8.3371 17.9169 
28 1 3.70447 9.75325 20.1126 
30 1 4.40172 8.52453 19.7718 
34 1 4.34506 6.32396 18.6257 
40 1 7.73521 8.40128 11.8886 
49 1 4.80559 7.74657 20.8783 
50 1 2.0832 9.28283 18.5295 
58 1 1.56521 10.122 11.8218 
59 1 4.17187 7.75199 14.1008 
69 1 3.70626 9.75215 11.1657 
73 1 3.00002 8.35625 14.8413 
75 1 4.98754 6.29365 11.8173 
79 1 7.2302 6.1586 21.8382 
82 1 7.91958 6.92919 20.8659 
86 1 3.72515 9.77085 12.647 
88 1 2.34841 10.0611 13.0585 
108 1 9.1336 6.00118 20.859 
112 1 4.42216 8.53161 12.9902 
115 1 4.38295 6.33126 14.1401 
124 1 4.81137 7.73523 11.8679 
125 1 2.13729 9.275 14.217 
126 1 6.88364 9.25614 21.7269 
128 1 7.74317 8.39024 20.8643 
139 1 1.55273 10.1104 20.9251 
140 1 4.13549 7.76668 18.6684 
143 1 7.91931 6.93331 11.906 
146 1 4.32135 8.56457 21.9914 
149 1 4.98457 6.28674 20.9163 
157 1 2.34354 10.0538 19.701 
163 3 0.636892 11.6544 14.6241 
ITEM: TIMESTEP
20
ITEM: NUMBER OF ATOMS
163
ITEM: BOX BOUNDS xy xz yz pp pp pp
-6.7755000000000001e+00 1.3552000000000000e+01 -6.7755000000000001e+00
0.0000000000000000e+00 1.1735510246683001e+01 0.0000000000000000e+00
0.0000000000000000e+00 2.2149999999999999e+01 0.0000000000000000e+00
ITEM: ATOMS id type x y z 
8 1 -2.43929 5.42187 9.84699 
87 1 2.97076 4.28553 10.6362 
90 1 2.64544 5.47438 9.75762 
109 1 -2.43978 5.41937 0.766009 
158 1 2.66262 5.45861 0.865768 
11 1 4.27413 4.24203 20.1092 
14 1 2.87865 4.15544 19.7069 
18 1 1.30104 5.86645 18.5725 
33 1 2.09634 4.27398 20.9152 
43 1 4.28503 4.21701 21.5493 
47 1 3.25073 5.78885 17.8373 
52 1 4.27129 4.25073 12.6574 
76 1 2.41538 4.92001 14.1901 
85 1 4.28802 4.2145 11.2105 
89 1 3.25043 5.78659 14.9163 
91 1 0.949084 5.03361 11.8546 
102 1 2.88184 4.15543 13.0695 
105 1 1.3311 5.90899 14.1558 
114 1 2.12423 4.2313 11.8464 
150 1 2.4331 4.91374 18.573 
156 1 2.95752 4.28451 22.1122 
159 1 0.933907 5.11206 20.9219 
5 1 -4.89365 10.5715 8.63689 
9 1 -3.32729 8.85641 7.49972 
19 1 -1.73405 7.55509 10.5451 
21 1 -2.56853 8.79661 10.9659 
23 1 -3.30485 7.52747 6.81199 
25 1 -4.11488 10.4445 9.8407 
32 1 1.57659 6.37635 0.797088 
36 1 -1.87719 7.56884 9.05689 
38 1 -2.15336 6.23843 8.6436 
54 1 0.315832 8.47967 10.6421 
57 1 1.31845 7.90694 9.77798 
60 1 -1.73128 7.55423 0.0705427 
65 1 -3.30342 7.52859 3.79999 
78 1 -1.87365 7.56772 1.55593 
80 1 -2.54534 8.79867 1.91019 
84 1 -4.45198 9.81335 3.11088 
99 1 -2.96036 9.60911 0.770831 
100 1 -2.9269 6.26549 3.17203 
107 1 -4.89419 10.5697 1.97622 
110 1 -3.32403 8.85778 3.11361 
111 1 0.584337 5.94393 10.8216 
113 1 1.57501 6.38204 9.86494 
119 1 -4.11551 10.4373 0.770069 
127 1 -2.15317 6.23944 1.96675 
131 1 -2.33528 6.25273 11.0161 
138 1 1.30841 7.94263 0.824239 
142 1 -2.54669 8.79556 8.69647 
145 1 -4.45126 9.8166 7.50205 
151 1 -4.97076 10.3879 11.0446 
154 1 -2.95774 9.61097 9.84372 
155 1 -2.92622 6.26616 7.44261 
12 1 2.56657 7.06486 17.1521 
17 1 0.420905 9.30081 20.9161 
24 1 -3.51476 8.35106 11.8698 
27 1 -0.273889 7.15553 21.6263 
29 1 0.588252 5.95486 22.0398 
31 1 1.28347 7.19676 17.8922 
44 1 -0.148374 7.1527 20.1374 
46 1 0.136673 8.48349 19.7219 
51 1 -0.307738 7.21348 11.1283 
53 1 2.54141 7.04974 15.6284 
56 1 1.3275 7.1684 14.8468 
63 1 -2.3366 6.25458 21.7497 
66 1 -3.32885 6.81897 20.8626 
70 1 -0.15822 7.19245 12.6119 
72 1 0.516561 5.92727 12.9127 
92 1 0.76605 8.59914 14.3668 
95 1 -4.96794 10.3792 21.7182 
98 1 -4.67279 9.17772 20.8421 
104 1 0.414461 9.32044 11.8202 
116 1 -2.56279 8.7992 21.8002 
118 1 -3.50958 8.35394 20.8915 
122 1 0.132021 8.49805 13.0036 
133 1 -3.3305 6.81948 11.9014 
136 1 0.319357 8.47138 22.095 
147 1 0.517835 5.92836 19.7768 
153 1 -4.67131 9.18275 11.925 
160 1 0.904609 8.45699 18.5145 
161 2 0.389032 9.62429 14.7036 
162 2 -0.193915 11.1771 14.5538 
1 1 7.82966 4.96386 10.5047 
4 1 9.13063 4.82938 11.0482 
20 1 7.82017 4.94395 9.05884 
42 1 9.45722 5.45097 7.44933 
67 1 9.94903 4.61508 0.760303 
77 1 7.8295 4.96449 0.103619 
94 1 7.82615 4.94517 1.55068 
96 1 9.16599 4.67716 1.99008 
121 1 4.63577 5.50427 10.6789 
130 1 9.4536 5.45175 3.16248 
134 1 9.95165 4.6131 9.85513 
152 1 9.16518 4.67714 8.62572 
45 1 4.64296 5.50185 22.0769 
55 1 4.84518 5.52586 13.072 
106 1 9.13244 4.82792 21.716 
137 1 4.82866 5.5232 19.6931 
2 1 7.26437 10.4808 9.0486 
3 1 8.97251 7.64893 6.05948 
6 1 8.51947 6.39217 6.82335 
16 1 2.44384 8.73744 0.844522 
22 1 7.08384 6.17474 8.68994 
26 1 7.19604 8.41914 7.53122 
35 1 7.27053 10.5027 10.4825 
37 1 6.86005 9.21606 11.0331 
39 1 8.28527 8.94307 6.77483 
41 1 6.69852 6.99103 9.82273 
48 1 3.67731 6.37126 0.840814 
61 1 7.26445 10.4818 1.57123 
62 1 8.97098 7.65458 4.55362 
64 1 6.70261 9.1991 1.98765 
68 1 7.39861 6.96115 3.0592 
71 1 4.36466 8.53561 10.7479 
74 1 3.59759 7.83463 9.77495 
81 1 8.51991 6.39609 3.79232 
83 1 6.55371 8.4127 0.796901 
93 1 7.26582 10.4974 0.141886 
97 1 8.28356 8.94345 3.84131 
101 1 2.4105 9.91368 10.6442 
103 1 2.43824 8.73203 9.75419 
117 1 7.07411 6.17405 1.92792 
120 1 7.19705 8.41446 3.0794 
123 1 3.67117 6.37284 9.77091 
129 1 6.70103 6.9888 0.793013 
132 1 6.70104 9.19597 8.62064 
135 1 7.39792 6.96069 7.56145 
141 1 7.19253 6.19318 10.9379 
144 1 6.55691 8.41218 9.81277 
148 1 3.59997 7.82788 0.836963 
7 1 9.08976 6.01393 11.9132 
10 1 3.69868 9.761 21.5749 
13 1 2.4068 9.91845 22.1116 
15 1 3.0214 8.33717 17.8949 
28 1 3.7155 9.7837 20.1262 
30 1 4.4418 8.54117 19.7725 
34 1 4.34045 6.30782 18.6109 
40 1 7.76089 8.37187 11.9023 
49 1 4.82969 7.73523 20.9046 
50 1 2.08213 9.2681 18.5218 
58 1 1.58632 10.1155 11.8293 
59 1 4.15703 7.75801 14.1372 
69 1 3.7115 9.77084 11.1861 
73 1 3.02188 8.32955 14.841 
75 1 4.97916 6.29642 11.8551 
79 1 7.19489 6.19543 21.8281 
82 1 7.91716 6.92436 20.8578 
86 1 3.73469 9.78388 12.6227 
88 1 2.38504 10.0421 13.054 
108 1 9.08988 6.01598 20.8492 
112 1 4.45596 8.53578 12.9954 
115 1 4.35533 6.30789 14.1559 
124 1 4.83267 7.72655 11.8604 
125 1 2.14354 9.25536 14.214 
126 1 6.86026 9.21916 21.7325 
128 1 7.75961 8.37649 20.8574 
139 1 1.57751 10.1146 20.9238 
140 1 4.14343 7.76578 18.6336 
143 1 7.91593 6.9248 11.9068 
146 1 4.34331 8.5352 22.0145 
149 1 4.97966 6.30574 20.9057 
157 1 2.36948 10.0415 19.7001 
163 3 0.637681 11.6531 14.6241 
ITEM: TIMESTEP
30
ITEM: NUMBER OF ATOMS
163
ITEM: BOX BOUNDS xy xz yz pp pp pp
-6.7755000000000001e+00 1.3552000000000000e+01 -6.7755000000000001e+00
0.0000000000000000e+00 1.1735510246683001e+01 0.0000000000000000e+00
0.0000000000000000e+00 2.2149999999999999e+01 0.0000000000000000e+00
ITEM: ATOMS id type x y z 
8 1 -2.46521 5.45513 9.84406 
87 1 2.94348 4.3027 10.627 
90 1 2.61457 5.46947 9.77891 
109 1 -2.46566 5.45633 0.773975 
158 1 2.62148 5.46434 0.846194 
11 1 4.25377 4.26343 20.1085 
14 1 2.86047 4.1851 19.7084 
18 1 1.27934 5.84805 18.559 
33 1 2.05829 4.29838 20.9076 
43 1 4.25198 4.27609 21.5425 
47 1 3.24329 5.79657 17.8226 
52 1 4.26741 4.26463 12.6535 
76 1 2.42403 4.94389 14.1783 
85 1 4.25877 4.28807 11.2189 
89 1 3.23824 5.79198 14.9359 
91 1 0.933338 5.04119 11.8441 
102 1 2.87459 4.17426 13.0641 
105 1 1.30042 5.90968 14.1596 
114 1 2.09196 4.22806 11.8527 
150 1 2.42124 4.94353 18.5773 
156 1 2.92854 4.32091 22.1307 
159 1 0.93708 5.13421 20.9332 
5 1 -4.88232 10.5391 8.63293 
9 1 -3.29661 8.87572 7.47717 
19 1 -1.73261 7.56825 10.5382 
21 1 -2.53708 8.8302 10.9837 
23 1 -3.28961 7.5405 6.81117 
25 1 -4.08521 10.4294 9.84459 
32 1 1.58142 6.39194 0.811839 
36 1 -1.84777 7.58436 9.04374 
38 1 -2.15558 6.26118 8.64227 
54 1 0.325951 8.44395 10.64 
57 1 1.32169 7.90753 9.7701 
60 1 -1.72555 7.56707 0.073116 
65 1 -3.28933 7.54015 3.80133 
78 1 -1.84266 7.58858 1.56129 
80 1 -2.51324 8.80852 1.90675 
84 1 -4.44314 9.78462 3.11225 
99 1 -2.93529 9.59647 0.762551 
100 1 -2.9383 6.29043 3.16631 
107 1 -4.88325 10.5408 1.97985 
110 1 -3.29656 8.87457 3.13333 
111 1 0.557108 5.93364 10.809 
113 1 1.57557 6.38889 9.85215 
119 1 -4.08675 10.4284 0.772803 
127 1 -2.15965 6.25813 1.97215 
131 1 -2.34645 6.29182 11.0148 
138 1 1.33325 7.9226 0.841529 
142 1 -2.51364 8.81162 8.70773 
145 1 -4.4447 9.78196 7.50243 
151 1 -4.94372 10.3429 11.0529 
154 1 -2.94126 9.60174 9.84773 
155 1 -2.94012 6.28935 7.44255 
12 1 2.56675 7.07801 17.163 
17 1 0.445784 9.26554 20.9137 
24 1 -3.48257 8.33859 11.8765 
27 1 -0.272775 7.14166 21.6229 
29 1 0.569844 5.92246 22.0386 
31 1 1.27319 7.18565 17.891 
44 1 -0.173661 7.13613 20.1349 
46 1 0.137589 8.45931 19.7208 
51 1 -0.294782 7.18525 11.1366 
53 1 2.5489 7.06556 15.6002 
56 1 1.30372 7.18933 14.8403 
63 1 -2.33975 6.30101 21.7537 
66 1 -3.33529 6.83488 20.8361 
70 1 -0.182581 7.19033 12.6384 
72 1 0.49235 5.92183 12.9103 
92 1 0.778135 8.5794 14.353 
95 1 -4.95276 10.3492 21.7155 
98 1 -4.64675 9.15988 20.8384 
104 1 0.440226 9.28514 11.8395 
116 1 -2.52502 8.81723 21.7823 
118 1 -3.47744 8.33553 20.8879 
122 1 0.145438 8.4819 13.0003 
133 1 -3.33421 6.83155 11.9255 
136 1 0.326984 8.43166 22.0898 
147 1 0.495686 5.90411 19.7905 
153 1 -4.64933 9.16348 11.9238 
160 1 0.918692 8.43566 18.5201 
161 2 0.345307 9.59306 14.7375 
162 2 -0.199818 11.1852 14.5542 
1 1 7.77652 4.97973 10.5137 
4 1 9.09158 4.86181 11.0376 
20 1 7.78083 4.94037 9.05902 
42 1 9.44499 5.47274 7.4558 
67 1 9.93094 4.64332 0.767092 
77 1 7.77804 4.97736 0.0977578 
94 1 7.77864 4.94461 1.55904 
96 1 9.1392 4.71567 1.97597 
121 1 4.62625 5.5532 10.6593 
130 1 9.44404 5.47544 3.15991 
134 1 9.93174 4.64355 9.84941 
152 1 9.13963 4.71298 8.63489 
45 1 4.62243 5.55303 22.0975 
55 1 4.82879 5.54645 13.0693 
106 1 9.09312 4.86596 21.7213 
137 1 4.81887 5.54509 19.6963 
2 1 7.28662 10.4609 9.03915 
3 1 8.96456 7.65276 6.08688 
6 1 8.50452 6.39151 6.80193 
16 1 2.45142 8.73653 0.856796 
22 1 7.05098 6.15706 8.67558 
26 1 7.19676 8.40496 7.52112 
35 1 7.28919 10.4489 10.4833 
37 1 6.8675 9.173 11.0373 
39 1 8.28761 8.92395 6.74208 
41 1 6.67618 6.95648 9.83617 
48 1 3.67593 6.36623 0.838054 
61 1 7.28589 10.46 1.57156 
62 1 8.966 7.65262 4.52735 
64 1 6.71744 9.1777 1.99359 
68 1 7.376 6.94912 3.07435 
71 1 4.36634 8.53613 10.7289 
74 1 3.62176 7.84858 9.76697 
81 1 8.50473 6.39131 3.8116 
83 1 6.54157 8.38744 0.805328 
93 1 7.29758 10.4428 0.131832 
97 1 8.29015 8.92149 3.86937 
101 1 2.44345 9.88891 10.6508 
103 1 2.45619 8.73663 9.74957 
117 1 7.05157 6.15464 1.94206 
120 1 7.19684 8.40877 3.08958 
123 1 3.66719 6.37081 9.7784 
129 1 6.6761 6.95844 0.780372 
132 1 6.71713 9.18233 8.62298 
135 1 7.37884 6.95344 7.53757 
141 1 7.17544 6.18736 10.9371 
144 1 6.54682 8.38865 9.80601 
148 1 3.61297 7.84711 0.844771 
7 1 9.06558 6.03093 11.9179 
10 1 3.74586 9.74952 21.5736 
13 1 2.43812 9.89355 22.1027 
15 1 3.034 8.3269 17.8754 
28 1 3.75482 9.7871 20.1342 
30 1 4.48167 8.55806 19.759 
34 1 4.33349 6.31974 18.5968 
40 1 7.76303 8.35654 11.9101 
49 1 4.85067 7.76214 20.9134 
50 1 2.08491 9.24967 18.528 
58 1 1.61541 10.092 11.8341 
59 1 4.18655 7.75961 14.1481 
69 1 3.76264 9.74649 11.1773 
73 1 3.03078 8.31943 14.8582 
75 1 4.98665 6.33442 11.8718 
79 1 7.17686 6.18994 21.8267 
82 1 7.88563 6.91587 20.8421 
86 1 3.78975 9.78544 12.6214 
88 1 2.42185 10.0056 13.0466 
108 1 9.06815 6.03009 20.8478 
112 1 4.49343 8.55533 13.0123 
115 1 4.34402 6.31555 14.1715 
124 1 4.85321 7.75749 11.8488 
125 1 2.14529 9.22797 14.1966 
126 1 6.86377 9.16969 21.7241 
128 1 7.75705 8.35362 20.8569 
139 1 1.59811 10.0877 20.9168 
140 1 4.16379 7.77085 18.6127 
143 1 7.88677 6.90878 11.9198 
146 1 4.35592 8.536 22.0291 
149 1 4.9861 6.33317 20.8904 
157 1 2.39566 10.011 19.7011 
163 3 0.638675 11.6497 14.624 
ITEM: TIMESTEP
40
ITEM: NUMBER OF ATOMS
163
ITEM: BOX BOUNDS xy xz yz pp pp pp
-6.7755000000000001e+00 1.3552000000000000e+01 -6.7755000000000001e+00
0.0000000000000000e+00 1.1735510246683001e+01 0.0000000000000000e+00
0.0000000000000000e+00 2.2149999999999999e+01 0.0000000000000000e+00
ITEM: ATOMS id type x y z 
8 1 -2.48124 5.48695 9.84733 
87 1 2.93894 4.31606 10.641 
90 1 2.60787 5.47892 9.75363 
109 1 -2.4812 5.48761 0.768152 
158 1 2.62706 5.47134 0.887022 
11 1 4.24592 4.29288 20.0988 
14 1 2.84605 4.18771 19.7144 
18 1 1.26691 5.85269 18.5574 
33 1 2.06531 4.29753 20.9186 
43 1 4.24834 4.29232 21.5371 
47 1 3.22048 5.80242 17.834 
52 1 4.25866 4.2909 12.6662 
76 1 2.40474 4.95059 14.1763 
85 1 4.25828 4.29375 11.2242 
89 1 3.22575 5.79925 14.9304 
91 1 0.911487 5.02761 11.8479 
102 1 2.86481 4.17635 13.0571 
105 1 1.29167 5.90828 14.158 
114 1 2.08729 4.22647 11.8472 
150 1 2.40708 4.92946 18.5704 
156 1 2.92565 4.32361 22.1151 
159 1 0.903687 5.12903 20.9157 
5 1 -4.86339 10.5337 8.64401 
9 1 -3.28635 8.87173 7.47517 
19 1 -1.73272 7.59943 10.5338 
21 1 -2.50491 8.82422 10.9836 
23 1 -3.29919 7.53349 6.81037 
25 1 -4.07675 10.4164 9.85144 
32 1 1.54723 6.38897 0.827373 
36 1 -1.82689 7.60478 9.03909 
38 1 -2.14874 6.28085 8.64317 
54 1 0.340843 8.43237 10.6439 
57 1 1.33571 7.90979 9.75849 
60 1 -1.72379 7.59735 0.0808751 
65 1 -3.29755 7.53531 3.80061 
78 1 -1.82079 7.60313 1.57111 
80 1 -2.50274 8.82328 1.92314 
84 1 -4.42808 9.79523 3.11639 
99 1 -2.90792 9.59923 0.76731 
100 1 -2.93207 6.29022 3.16493 
107 1 -4.86329 10.5319 1.96902 
110 1 -3.28571 8.87008 3.13691 
111 1 0.545172 5.92967 10.8071 
113 1 1.54774 6.39325 9.84772 
119 1 -4.07807 10.4104 0.760817 
127 1 -2.14802 6.28247 1.96883 
131 1 -2.36213 6.30433 11.0154 
138 1 1.32914 7.93708 0.850489 
142 1 -2.5028 8.82193 8.68745 
145 1 -4.42889 9.79466 7.49615 
151 1 -4.93971 10.3195 11.0473 
154 1 -2.90714 9.6019 9.84762 
155 1 -2.9319 6.28857 7.44892 
12 1 2.56619 7.0716 17.1378 
17 1 0.463515 9.23738 20.9135 
24 1 -3.45578 8.34196 11.8975 
27 1 -0.272616 7.11026 21.6203 
29 1 0.555696 5.9366 22.0613 
31 1 1.28122 7.18973 17.8866 
44 1 -0.189811 7.10795 20.1161 
46 1 0.131746 8.44105 19.724 
51 1 -0.300967 7.17566 11.15 
53 1 2.53831 7.06804 15.6027 
56 1 1.30275 7.18487 14.847 
63 1 -2.35933 6.30858 21.7483 
66 1 -3.33364 6.83587 20.83 
70 1 -0.212771 7.18037 12.6397 
72 1 0.478048 5.91041 12.9028 
92 1 0.761381 8.59053 14.3673 
95 1 -4.93601 10.312 21.7169 
98 1 -4.6371 9.1305 20.8214 
104 1 0.459378 9.26979 11.8308 
116 1 -2.49661 8.82038 21.7762 
118 1 -3.45177 8.34142 20.8683 
122 1 0.139207 8.46825 12.9947 
133 1 -3.33467 6.8346 11.9329 
136 1 0.352216 8.42252 22.0969 
147 1 0.48269 5.90454 19.7739 
153 1 -4.63604 9.13159 11.9441 
160 1 0.911277 8.43423 18.5258 
161 2 0.332364 9.55475 14.7611 
162 2 -0.204899 11.1921 14.5546 
1 1 7.73861 4.94594 10.5104 
4 1 9.0726 4.88226 11.0339 
20 1 7.75136 4.94141 9.05098 
42 1 9.43254 5.47803 7.45676 
67 1 9.90712 4.67341 0.75633 
77 1 7.7387 4.94756 0.10275 
94 1 7.75178 4.94083 1.56011 
96 1 9.10739 4.73056 1.97673 
121 1 4.60254 5.57647 10.6738 
130 1 9.43212 5.47856 3.15602 
134 1 9.90722 4.67204 9.85609 
152 1 9.10742 4.72892 8.63836 
45 1 4.59755 5.5694 22.0824 
55 1 4.82417 5.56852 13.0766 
106 1 9.07219 4.88241 21.7319 
137 1 4.81138 5.56768 19.6856 
2 1 7.29206 10.435 9.04149 
3 1 8.96372 7.65666 6.06655 
6 1 8.50496 6.39153 6.81108 
16 1 2.47023 8.74101 0.870642 
22 1 7.01908 6.15373 8.66032 
26 1 7.20259 8.39286 7.51129 
35 1 7.30492 10.4253 10.4766 
37 1 6.87638 9.15308 11.0341 
39 1 8.30039 8.92988 6.75855 
41 1 6.64677 6.94645 9.81561 
48 1 3.64267 6.39146 0.863935 
61 1 7.2951 10.4322 1.57545 
62 1 8.96385 7.65647 4.54678 
64 1 6.72324 9.15711 1.9973 
68 1 7.3593 6.93752 3.08624 
71 1 4.39419 8.5374 10.7241 
74 1 3.62374 7.85406 9.74012 
81 1 8.504 6.39236 3.80381 
83 1 6.53657 8.37459 0.806299 
93 1 7.299 10.4243 0.1406 
97 1 8.30186 8.92951 3.85397 
101 1 2.46955 9.88513 10.6579 
103 1 2.47058 8.72782 9.73722 
117 1 7.01522 6.1539 1.95208 
120 1 7.20309 8.39038 3.10268 
123 1 3.64059 6.38972 9.75325 
129 1 6.64644 6.94522 0.799506 
132 1 6.72505 9.15687 8.61358 
135 1 7.35949 6.93572 7.53104 
141 1 7.14677 6.19397 10.9508 
144 1 6.5405 8.37192 9.80621 
148 1 3.6218 7.85536 0.865672 
7 1 9.05583 6.04167 11.9259 
10 1 3.77684 9.77067 21.5773 
13 1 2.45926 9.88655 22.0973 
15 1 3.03374 8.33227 17.8858 
28 1 3.78483 9.78164 20.1209 
30 1 4.513 8.56542 19.7407 
34 1 4.33189 6.33335 18.5899 
40 1 7.76703 8.34423 11.9246 
49 1 4.87571 7.77358 20.8987 
50 1 2.10368 9.23933 18.5258 
58 1 1.64409 10.0661 11.8294 
59 1 4.20423 7.77341 14.1567 
69 1 3.79437 9.77406 11.1792 
73 1 3.05159 8.34076 14.8457 
75 1 4.98903 6.3421 11.8612 
79 1 7.14857 6.19256 21.8143 
82 1 7.86943 6.90109 20.8236 
86 1 3.82104 9.78231 12.6265 
88 1 2.45274 9.98931 13.0516 
108 1 9.05539 6.04512 20.8362 
112 1 4.53587 8.5621 13.0216 
115 1 4.34144 6.32649 14.1808 
124 1 4.88297 7.77091 11.8616 
125 1 2.16041 9.20809 14.1923 
126 1 6.87984 9.15514 21.7302 
128 1 7.76826 8.34601 20.8385 
139 1 1.61745 10.0607 20.9178 
140 1 4.17789 7.78418 18.6062 
143 1 7.86852 6.90188 11.9395 
146 1 4.38242 8.5396 22.0321 
149 1 4.98661 6.3467 20.9003 
157 1 2.42719 9.99763 19.7056 
163 3 0.639583 11.6453 14.6239 
ITEM: TIMESTEP
50
ITEM: NUMBER OF ATOMS
163
ITEM: BOX BOUNDS xy xz yz pp pp pp
-6.7755000000000001e+00 1.3552000000000000e+01 -6.7755000000000001e+00
0.0000000000000000e+00 1.1735510246683001e+01 0.0000000000000000e+00
0.0000000000000000e+00 2.2149999999999999e+01 0.0000000000000000e+00
ITEM: ATOMS id type x y z 
8 1 -2.48867 5.49392 9.84377 
87 1 2.93392 4.32101 10.6377 
90 1 2.60105 5.48078 9.75443 
109 1 -2.48876 5.49494 0.770683 
158 1 2.61821 5.47281 0.885984 
11 1 4.2398 4.29785 20.1001 
14 1 2.84207 4.1929 19.7153 
18 1 1.2593 5.85109 18.5526 
33 1 2.05863 4.29935 20.915 
43 1 4.23816 4.30579 21.5373 
47 1 3.2241 5.80474 17.8313 
52 1 4.25519 4.29701 12.6633 
76 1 2.40018 4.95505 14.175 
85 1 4.24962 4.30792 11.2247 
89 1 3.22362 5.80072 14.9284 
91 1 0.906203 5.02447 11.8436 
102 1 2.86038 4.18107 13.0584 
105 1 1.28521 5.91457 14.1582 
114 1 2.07997 4.22713 11.8482 
150 1 2.40067 4.93452 18.5681 
156 1 2.91968 4.33303 22.1235 
159 1 0.899919 5.12733 20.9286 
5 1 -4.85785 10.5285 8.6475 
9 1 -3.28173 8.87415 7.4731 
19 1 -1.73094 7.60055 10.5323 
21 1 -2.50071 8.82852 10.9888 
23 1 -3.29961 7.53464 6.81 
25 1 -4.07262 10.4109 9.85021 
32 1 1.54733 6.39127 0.835069 
36 1 -1.82083 7.61226 9.03485 
38 1 -2.14948 6.28555 8.64336 
54 1 0.346332 8.4284 10.644 
57 1 1.33823 7.90473 9.75834 
60 1 -1.72148 7.59795 0.081079 
65 1 -3.29839 7.53581 3.80187 
78 1 -1.81475 7.61229 1.57336 
80 1 -2.49148 8.82353 1.92505 
84 1 -4.42086 9.79177 3.11825 
99 1 -2.89973 9.60073 0.763394 
100 1 -2.93372 6.28979 3.16261 
107 1 -4.85674 10.5277 1.96554 
110 1 -3.28155 8.8732 3.13875 
111 1 0.539956 5.92717 10.8083 
113 1 1.54655 6.39232 9.84309 
119 1 -4.07094 10.4052 0.763201 
127 1 -2.14876 6.28626 1.96948 
131 1 -2.36328 6.31347 11.0163 
138 1 1.33695 7.92831 0.854264 
142 1 -2.49243 8.82348 8.6858 
145 1 -4.4226 9.79167 7.49549 
151 1 -4.93252 10.3084 11.0505 
154 1 -2.90004 9.60463 9.84855 
155 1 -2.93402 6.28917 7.45036 
12 1 2.56844 7.07129 17.144 
17 1 0.470942 9.22958 20.9123 
24 1 -3.44484 8.34168 11.902 
27 1 -0.272191 7.11128 21.6182 
29 1 0.551614 5.93033 22.059 
31 1 1.28117 7.18889 17.8876 
44 1 -0.199052 7.10758 20.1202 
46 1 0.131741 8.43553 19.7233 
51 1 -0.300324 7.17339 11.1519 
53 1 2.54178 7.07062 15.599 
56 1 1.30266 7.18654 14.8398 
63 1 -2.35959 6.31855 21.7487 
66 1 -3.33635 6.8391 20.8261 
70 1 -0.216991 7.1747 12.6416 
72 1 0.469284 5.91134 12.906 
92 1 0.765725 8.58287 14.3661 
95 1 -4.9334 10.3049 21.7145 
98 1 -4.63221 9.12611 20.8181 
104 1 0.469879 9.26331 11.833 
116 1 -2.49142 8.82336 21.7744 
118 1 -3.44288 8.34111 20.8631 
122 1 0.138066 8.46492 12.9931 
133 1 -3.33707 6.83682 11.9368 
136 1 0.354225 8.41382 22.0952 
147 1 0.472718 5.89935 19.7673 
153 1 -4.63469 9.12869 11.9472 
160 1 0.914047 8.43379 18.5265 
161 2 0.325826 9.54652 14.7724 
162 2 -0.206752 11.1946 14.5548 
1 1 7.72114 4.94267 10.5151 
4 1 9.05806 4.89086 11.0318 
20 1 7.73941 4.94371 9.05241 
42 1 9.43227 5.48144 7.46137 
67 1 9.90028 4.68494 0.760057 
77 1 7.72175 4.94386 0.0985297 
94 1 7.73922 4.94412 1.56061 
96 1 9.10088 4.73603 1.97532 
121 1 4.59863 5.58311 10.6701 
130 1 9.43192 5.48299 3.15245 
134 1 9.90022 4.68348 9.85342 
152 1 9.10145 4.7348 8.63822 
45 1 4.59384 5.57997 22.086 
55 1 4.82314 5.57419 13.0769 
106 1 9.05863 4.89233 21.7316 
137 1 4.81147 5.57489 19.6879 
2 1 7.30043 10.4288 9.04089 
3 1 8.96187 7.65706 6.07274 
6 1 8.50157 6.39509 6.80654 
16 1 2.46922 8.74234 0.874472 
22 1 7.00966 6.14725 8.65647 
26 1 7.20327 8.38663 7.50739 
35 1 7.30855 10.4154 10.4749 
37 1 6.88058 9.14637 11.0348 
39 1 8.30337 8.9266 6.75674 
41 1 6.63896 6.94048 9.81809 
48 1 3.64453 6.39335 0.863911 
61 1 7.30061 10.4266 1.57371 
62 1 8.96232 7.65722 4.54141 
64 1 6.72427 9.14892 1.99898 
68 1 7.35301 6.93369 3.08842 
71 1 4.39391 8.53817 10.7241 
74 1 3.63169 7.85762 9.74225 
81 1 8.50071 6.39504 3.80713 
83 1 6.53567 8.36688 0.809155 
93 1 7.30797 10.4128 0.139965 
97 1 8.30424 8.92635 3.85551 
101 1 2.48063 9.87807 10.6563 
103 1 2.47245 8.73253 9.73501 
117 1 7.00758 6.14736 1.95777 
120 1 7.20315 8.38578 3.10499 
123 1 3.6407 6.39092 9.75277 
129 1 6.63847 6.94098 0.795428 
132 1 6.72521 9.15032 8.61422 
135 1 7.35347 6.93369 7.52684 
141 1 7.14267 6.18836 10.947 
144 1 6.53966 8.36666 9.80336 
148 1 3.62776 7.85853 0.864612 
7 1 9.05269 6.04484 11.9288 
10 1 3.79077 9.77195 21.5769 
13 1 2.46932 9.88154 22.0962 
15 1 3.03725 8.32622 17.8799 
28 1 3.79519 9.78271 20.1228 
30 1 4.52458 8.56864 19.7365 