LAMMPS (3 Mar 2020)
Reading data file ...
  orthogonal box = (0 0 0) to (11 11.002 11)
  2 by 2 by 2 MPI processor grid
  reading atoms ...
  50 atoms
  read_data CPU = 0.0194552 secs
WARNING: Using 'neigh_modify every 1 delay 0 check yes' setting during minimization (../min.cpp:190)
WARNING: Total cutoff < 2*bond cutoff. May need to use an increased neighbor list skin. (../pair_reaxc.cpp:413)
Neighbor list info ...
  update every 1 steps, delay 0 steps, check yes
  max neighbors/atom: 2000, page size: 100000
  master list distance cutoff = 9.5
  ghost atom cutoff = 9.5
  binsize = 4.75, bins = 3 3 3
  2 neighbor lists, perpetual/occasional/extra = 2 0 0
  (1) pair reax/c, perpetual
      attributes: half, newton off, ghost
      pair build: half/bin/newtoff/ghost
      stencil: half/ghost/bin/3d/newtoff
      bin: standard
  (2) fix qeq/reax, perpetual, copy from (1)
      attributes: half, newton off, ghost
      pair build: copy
      stencil: none
      bin: none
Setting up cg style minimization ...
  Unit style    : real
  Current step  : 0
Per MPI rank memory allocation (min/avg/max) = 18.9 | 18.99 | 19.13 Mbytes
Step Temp E_pair E_mol TotEng Press 
       0            0   -8672.3879            0   -8672.3879    44415.855 
     117            0   -8823.4296            0   -8823.4296    21222.199 
Loop time of 1.64573 on 8 procs for 117 steps with 50 atoms

99.4% CPU use with 8 MPI tasks x no OpenMP threads

Minimization stats:
  Stopping criterion = energy tolerance
  Energy initial, next-to-last, final = 
        -8672.38790518       -8823.429592     -8823.42964186
  Force two-norm initial, final = 585.669 65.962
  Force max component initial, final = 283.577 16.6696
  Final line search alpha, max atom move = 0.000187397 0.00312383
  Iterations, force evaluations = 117 621

MPI task timing breakdown:
Section |  min time  |  avg time  |  max time  |%varavg| %total
---------------------------------------------------------------
Pair    | 1.2596     | 1.271      | 1.2837     |   0.7 | 77.23
Neigh   | 0.00068203 | 0.00070183 | 0.00071461 |   0.0 |  0.04
Comm    | 0.012329   | 0.025      | 0.036335   |   4.7 |  1.52
Output  | 0.00020384 | 0.0002681  | 0.00040783 |   0.0 |  0.02
Modify  | 0.3451     | 0.34515    | 0.34519    |   0.0 | 20.97
Other   |            | 0.003641   |            |       |  0.22

Nlocal:    6.25 ave 8 max 6 min
Histogram: 7 0 0 0 0 0 0 0 0 1
Nghost:    615.5 ave 628 max 608 min
Histogram: 3 0 1 0 1 1 1 0 0 1
Neighs:    819.625 ave 1050 max 782 min
Histogram: 7 0 0 0 0 0 0 0 0 1

Total # of neighbors = 6557
Ave neighs/atom = 131.14
Neighbor list builds = 1
Dangerous builds = 0
WARNING: Using 'neigh_modify every 1 delay 0 check yes' setting during minimization (../min.cpp:190)
WARNING: Total cutoff < 2*bond cutoff. May need to use an increased neighbor list skin. (../pair_reaxc.cpp:413)
Setting up cg style minimization ...
  Unit style    : real
  Current step  : 117
Per MPI rank memory allocation (min/avg/max) = 18.9 | 18.99 | 19.13 Mbytes
Step Temp E_pair E_mol TotEng Press 
     117            0   -8823.4296            0   -8823.4296    21222.199 
     118            0   -8823.4297            0   -8823.4297    21222.424 
Loop time of 0.0231287 on 8 procs for 1 steps with 50 atoms

99.3% CPU use with 8 MPI tasks x no OpenMP threads

Minimization stats:
  Stopping criterion = energy tolerance
  Energy initial, next-to-last, final = 
        -8823.42964186     -8823.42964186     -8823.42966327
  Force two-norm initial, final = 65.962 65.9564
  Force max component initial, final = 16.6696 16.667
  Final line search alpha, max atom move = 0.000187467 0.0031245
  Iterations, force evaluations = 1 8

MPI task timing breakdown:
Section |  min time  |  avg time  |  max time  |%varavg| %total
---------------------------------------------------------------
Pair    | 0.018028   | 0.018174   | 0.018264   |   0.1 | 78.58
Neigh   | 0          | 0          | 0          |   0.0 |  0.00
Comm    | 0.00023096 | 0.00031963 | 0.00046264 |   0.0 |  1.38
Output  | 0          | 0          | 0          |   0.0 |  0.00
Modify  | 0.0045337  | 0.0045356  | 0.0045381  |   0.0 | 19.61
Other   |            | 9.934e-05  |            |       |  0.43

Nlocal:    6.25 ave 8 max 6 min
Histogram: 7 0 0 0 0 0 0 0 0 1
Nghost:    610.375 ave 615 max 608 min
Histogram: 1 4 0 0 1 0 0 1 0 1
Neighs:    819.875 ave 1045 max 785 min
Histogram: 7 0 0 0 0 0 0 0 0 1

Total # of neighbors = 6559
Ave neighs/atom = 131.18
Neighbor list builds = 0
Dangerous builds = 0
WARNING: Using 'neigh_modify every 1 delay 0 check yes' setting during minimization (../min.cpp:190)
WARNING: Total cutoff < 2*bond cutoff. May need to use an increased neighbor list skin. (../pair_reaxc.cpp:413)
Setting up cg style minimization ...
  Unit style    : real
  Current step  : 118
WARNING: Energy due to 3 extra global DOFs will be included in minimizer energies
Per MPI rank memory allocation (min/avg/max) = 18.9 | 18.99 | 19.13 Mbytes
Step Temp E_pair E_mol TotEng Press Volume 
     118            0   -8823.4297            0   -8823.4297    21222.424     1331.242 
    1912            0   -8879.4008            0   -8879.4008    816.83274    1356.3795 
Loop time of 5.66523 on 8 procs for 1794 steps with 50 atoms

99.5% CPU use with 8 MPI tasks x no OpenMP threads

Minimization stats:
  Stopping criterion = energy tolerance
  Energy initial, next-to-last, final = 
        -8823.42966327     -8879.40069517     -8879.40076781
  Force two-norm initial, final = 716.714 34.3678
  Force max component initial, final = 415.937 20.0875
  Final line search alpha, max atom move = 2.43976e-05 0.000490086
  Iterations, force evaluations = 1794 2425

MPI task timing breakdown:
Section |  min time  |  avg time  |  max time  |%varavg| %total
---------------------------------------------------------------
Pair    | 4.8005     | 4.8412     | 4.866      |   1.1 | 85.45
Neigh   | 0          | 0          | 0          |   0.0 |  0.00
Comm    | 0.048107   | 0.072818   | 0.11334    |   8.6 |  1.29
Output  | 0.0029243  | 0.0036912  | 0.0053539  |   1.2 |  0.07
Modify  | 0.70308    | 0.70331    | 0.70351    |   0.0 | 12.41
Other   |            | 0.04422    |            |       |  0.78

Nlocal:    6.25 ave 8 max 6 min
Histogram: 7 0 0 0 0 0 0 0 0 1
Nghost:    610.375 ave 615 max 608 min
Histogram: 1 4 0 0 1 0 0 1 0 1
Neighs:    819.875 ave 1045 max 785 min
Histogram: 7 0 0 0 0 0 0 0 0 1

Total # of neighbors = 6559
Ave neighs/atom = 131.18
Neighbor list builds = 0
Dangerous builds = 0
WARNING: Using 'neigh_modify every 1 delay 0 check yes' setting during minimization (../min.cpp:190)
WARNING: Total cutoff < 2*bond cutoff. May need to use an increased neighbor list skin. (../pair_reaxc.cpp:413)
Setting up cg style minimization ...
  Unit style    : real
  Current step  : 1912
Per MPI rank memory allocation (min/avg/max) = 18.9 | 18.99 | 19.13 Mbytes
Step Temp E_pair E_mol TotEng Press 
    1912            0   -8879.4008            0   -8879.4008    816.83274 
    1944            0   -8880.0288            0   -8880.0288    1113.9129 
Loop time of 0.515879 on 8 procs for 32 steps with 50 atoms

99.5% CPU use with 8 MPI tasks x no OpenMP threads

Minimization stats:
  Stopping criterion = energy tolerance
  Energy initial, next-to-last, final = 
        -8879.40076781     -8880.02881792     -8880.02882831
  Force two-norm initial, final = 19.4836 29.2637
  Force max component initial, final = 5.54181 6.22978
  Final line search alpha, max atom move = 6.82294e-06 4.25054e-05
  Iterations, force evaluations = 32 205

MPI task timing breakdown:
Section |  min time  |  avg time  |  max time  |%varavg| %total
---------------------------------------------------------------
Pair    | 0.39859    | 0.40071    | 0.40364    |   0.3 | 77.68
Neigh   | 0          | 0          | 0          |   0.0 |  0.00
Comm    | 0.0037228  | 0.0066147  | 0.0087384  |   2.2 |  1.28
Output  | 5.3799e-05 | 6.7451e-05 | 0.00010109 |   0.0 |  0.01
Modify  | 0.10729    | 0.10733    | 0.10735    |   0.0 | 20.81
Other   |            | 0.001155   |            |       |  0.22

Nlocal:    6.25 ave 8 max 6 min
Histogram: 7 0 0 0 0 0 0 0 0 1
Nghost:    587.25 ave 593 max 582 min
Histogram: 1 1 0 1 1 1 2 0 0 1
Neighs:    799.125 ave 1019 max 765 min
Histogram: 7 0 0 0 0 0 0 0 0 1

Total # of neighbors = 6393
Ave neighs/atom = 127.86
Neighbor list builds = 0
Dangerous builds = 0
WARNING: Using 'neigh_modify every 1 delay 0 check yes' setting during minimization (../min.cpp:190)
WARNING: Total cutoff < 2*bond cutoff. May need to use an increased neighbor list skin. (../pair_reaxc.cpp:413)
Setting up cg style minimization ...
  Unit style    : real
  Current step  : 1944
WARNING: Energy due to 3 extra global DOFs will be included in minimizer energies
Per MPI rank memory allocation (min/avg/max) = 18.9 | 18.99 | 19.13 Mbytes
Step Temp E_pair E_mol TotEng Press Volume 
    1944            0   -8880.0288            0   -8880.0288    1113.9129    1356.3795 
    2013            0    -8880.147            0    -8880.147    -375.3764    1356.7402 
Loop time of 0.33871 on 8 procs for 69 steps with 50 atoms

99.5% CPU use with 8 MPI tasks x no OpenMP threads

Minimization stats:
  Stopping criterion = energy tolerance
  Energy initial, next-to-last, final = 
        -8880.02882831     -8880.14695302     -8880.14702926
  Force two-norm initial, final = 49.9987 17.7318
  Force max component initial, final = 28.605 7.82961
  Final line search alpha, max atom move = 1.15341e-05 9.03077e-05
  Iterations, force evaluations = 69 149

MPI task timing breakdown:
Section |  min time  |  avg time  |  max time  |%varavg| %total
---------------------------------------------------------------
Pair    | 0.28752    | 0.28926    | 0.29168    |   0.2 | 85.40
Neigh   | 0          | 0          | 0          |   0.0 |  0.00
Comm    | 0.0023978  | 0.0047567  | 0.0065121  |   1.9 |  1.40
Output  | 0.0001137  | 0.00014023 | 0.00021031 |   0.0 |  0.04
Modify  | 0.042072   | 0.042085   | 0.04211    |   0.0 | 12.43
Other   |            | 0.002464   |            |       |  0.73

Nlocal:    6.25 ave 8 max 6 min
Histogram: 7 0 0 0 0 0 0 0 0 1
Nghost:    587.25 ave 593 max 582 min
Histogram: 1 1 0 1 1 1 2 0 0 1
Neighs:    799.125 ave 1020 max 764 min
Histogram: 7 0 0 0 0 0 0 0 0 1

Total # of neighbors = 6393
Ave neighs/atom = 127.86
Neighbor list builds = 0
Dangerous builds = 0
WARNING: Using 'neigh_modify every 1 delay 0 check yes' setting during minimization (../min.cpp:190)
WARNING: Total cutoff < 2*bond cutoff. May need to use an increased neighbor list skin. (../pair_reaxc.cpp:413)
Setting up cg style minimization ...
  Unit style    : real
  Current step  : 2013
Per MPI rank memory allocation (min/avg/max) = 18.9 | 18.99 | 19.13 Mbytes
Step Temp E_pair E_mol TotEng Press 
    2013            0    -8880.147            0    -8880.147    -375.3764 
    2015            0   -8880.1472            0   -8880.1472   -365.23089 
Loop time of 0.100278 on 8 procs for 2 steps with 50 atoms

99.3% CPU use with 8 MPI tasks x no OpenMP threads

Minimization stats:
  Stopping criterion = energy tolerance
  Energy initial, next-to-last, final = 
        -8880.14702926     -8880.14720569     -8880.14722472
  Force two-norm initial, final = 12.1855 15.0976
  Force max component initial, final = 3.6458 4.82771
  Final line search alpha, max atom move = 9.77586e-08 4.7195e-07
  Iterations, force evaluations = 2 41

MPI task timing breakdown:
Section |  min time  |  avg time  |  max time  |%varavg| %total
---------------------------------------------------------------
Pair    | 0.080524   | 0.081117   | 0.081892   |   0.2 | 80.89
Neigh   | 0          | 0          | 0          |   0.0 |  0.00
Comm    | 0.0014644  | 0.0022385  | 0.0028347  |   1.0 |  2.23
Output  | 0          | 0          | 0          |   0.0 |  0.00
Modify  | 0.016661   | 0.016671   | 0.016679   |   0.0 | 16.62
Other   |            | 0.0002518  |            |       |  0.25

Nlocal:    6.25 ave 8 max 6 min
Histogram: 7 0 0 0 0 0 0 0 0 1
Nghost:    587.25 ave 593 max 582 min
Histogram: 1 1 0 1 1 1 2 0 0 1
Neighs:    799.125 ave 1020 max 764 min
Histogram: 7 0 0 0 0 0 0 0 0 1

Total # of neighbors = 6393
Ave neighs/atom = 127.86
Neighbor list builds = 0
Dangerous builds = 0
WARNING: Total cutoff < 2*bond cutoff. May need to use an increased neighbor list skin. (../pair_reaxc.cpp:413)
Setting up Verlet run ...
  Unit style    : real
  Current step  : 0
  Time step     : 0.25
Per MPI rank memory allocation (min/avg/max) = 17.78 | 17.87 | 18 Mbytes
Step Temp TotEng KinEng PotEng Press 
       0          300   -8836.3293    43.817908   -8880.1472    1111.1139 
     200    239.31138   -8817.6198    34.953746   -8852.5735    8608.9559 
     400    348.74499   -8792.8846    50.937586   -8843.8221   -2963.1218 
     600    303.03927   -8798.8042    44.261823    -8843.066    -38132.51 
     800    304.58985   -8805.6199    44.488299   -8850.1082    10720.542 
    1000    316.55457   -8789.0427    46.235863   -8835.2786    44155.297 
    1200     326.6819   -8791.9524    47.715058   -8839.6674    9099.4375 
    1400     257.0917   -8809.9557    37.550735   -8847.5064   -11839.859 
    1600    327.35732   -8796.0727     47.81371   -8843.8864    5914.8947 
    1800    283.61289   -8794.8946    41.424411    -8836.319   -34384.564 
    2000    271.72156   -8807.2828    39.687568   -8846.9704    30090.825 
    2200    323.04162   -8798.0645    47.183359   -8845.2478    50158.247 
    2400    310.33536   -8792.4638    45.327487   -8837.7913    1351.4645 
    2600     265.6196   -8806.9909    38.796317   -8845.7872    412.96914 
    2800    254.68474   -8808.9449    37.199174   -8846.1441   -18484.739 
    3000    293.09326   -8794.4579    42.809111    -8837.267    17274.369 
    3200    252.09042   -8795.8745     36.82025   -8832.6947    3557.5474 
    3400    247.92453   -8808.9644    36.211781   -8845.1762    29442.246 
    3600    296.83075   -8791.5539    43.355008    -8834.909    9864.3896 
    3800    318.21165   -8795.9945    46.477895   -8842.4724   -998.39245 
    4000    266.09985   -8808.0712    38.866462   -8846.9377    3278.9481 
    4200    331.88437   -8788.5732    48.474929   -8837.0482    25900.866 
    4400    244.15688   -8802.6614    35.661479   -8838.3229     42394.91 
    4600    276.13791   -8796.4725    40.332619   -8836.8051   -24422.288 
    4800    304.71807   -8784.7275    44.507028   -8829.2345   -9345.2821 
    5000    272.61386   -8796.4763    39.817896   -8836.2942   -18270.977 
    5200     307.2122   -8799.1461    44.871319   -8844.0174   -2968.2891 
    5400    318.06635   -8787.5569    46.456673   -8834.0135    17824.616 
    5600    313.11744    -8790.741    45.733837   -8836.4749    -19189.77 
    5800    262.73401   -8800.1595    38.374848   -8838.5344    21444.002 
    6000    313.56867   -8783.9295    45.799744   -8829.7292    3388.1065 
    6200    372.69086   -8786.5901    54.435113   -8841.0252     19749.44 
    6400    294.83869   -8796.3811    43.064049   -8839.4451   -12935.534 
    6600    311.48664   -8793.4464    45.495643   -8838.9421    12181.103 
    6800    368.78805   -8782.1897     53.86507   -8836.0548   -38315.968 
    7000    305.76428   -8798.8539    44.659837   -8843.5138    21530.248 
    7200    333.75129   -8791.9244    48.747611    -8840.672   -17068.062 
    7400    343.12443    -8780.971    50.116649   -8831.0876    8939.4376 
    7600    311.84762    -8799.705    45.548368   -8845.2533    529.58424 
    7800    287.95943   -8790.0136    42.059266   -8832.0729   -4202.9689 
    8000    328.94168   -8784.4785    48.045121   -8832.5236    16057.227 
    8200    307.90667   -8800.5244    44.972754   -8845.4971   -1704.0065 
    8400    348.41454   -8787.0929    50.889321   -8837.9822    21408.705 
    8600    220.89353   -8803.1748    32.263641   -8835.4384   -14340.738 
    8800    288.16183   -8798.4502    42.088829    -8840.539    11861.871 
    9000    304.33678   -8790.1629    44.451336   -8834.6142   -8186.9766 
    9200    275.80214    -8793.932    40.283576   -8834.2156   -2753.7657 
    9400    264.04902   -8807.4126    38.566918   -8845.9796   -14446.191 
    9600    316.45043   -8792.3928    46.220653   -8838.6135   -16775.219 
    9800    334.34635   -8792.7821    48.834525   -8841.6167   -6099.9373 
   10000    309.88046   -8798.1618    45.261044   -8843.4228    33438.977 
   10200    267.99497   -8797.8157    39.143262   -8836.9589   -12130.149 
   10400    317.22984   -8784.2948    46.334493   -8830.6293   -38537.885 
   10600    256.62876   -8795.8749    37.483117    -8833.358    7026.2152 
   10800    243.56917   -8806.3117    35.575638   -8841.8874    8335.4892 
   11000    304.49037   -8795.1276     44.47377   -8839.6014   -13215.277 
   11200    310.57303   -8794.1155    45.362201   -8839.4777   -30905.408 
   11400    260.51511   -8801.2567    38.050757   -8839.3074    40083.051 
   11600    298.42158   -8792.9402    43.587364   -8836.5275     4402.201 
   11800    330.86626   -8782.6317    48.326224    -8830.958    10002.912 
   12000    254.07822   -8800.6371    37.110587   -8837.7477    42738.768 
   12200    321.88532   -8789.7869    47.014471   -8836.8014    5369.0558 
   12400     309.2499   -8788.9469    45.168946   -8834.1158    10904.776 
   12600    265.28844   -8809.0345    38.747948   -8847.7824   -5456.5045 
   12800    263.80124   -8802.0229    38.530728   -8840.5536   -5990.3047 
   13000    299.69314   -8793.6224    43.773087   -8837.3955   -16543.242 
   13200    250.44182   -8802.4089    36.579455   -8838.9884   -7477.2254 
   13400    276.65668   -8794.5769    40.408389   -8834.9852    4809.7286 
   13600    283.25042   -8784.3639    41.371469   -8825.7354    2454.8318 
   13800    355.91591   -8780.4289    51.984968   -8832.4138   -19051.095 
   14000    268.95021   -8800.2834    39.282786   -8839.5661    2078.7534 
   14200    305.76409   -8793.2819     44.65981   -8837.9417   -1656.6979 
   14400    357.49851   -8785.2284    52.216122   -8837.4445   -25919.976 
   14600    273.45253   -8796.6891    39.940393   -8836.6295   -7016.6785 
   14800     321.2265   -8787.9038    46.918244   -8834.8221    25153.451 
   15000    339.55232   -8782.0139    49.594907   -8831.6088   -11953.068 
   15200    293.31416   -8791.4748    42.841376   -8834.3161     6107.756 
   15400    278.18837   -8794.7279    40.632108     -8835.36    30834.965 
   15600    305.00857   -8803.0628    44.549458   -8847.6122   -20237.388 
   15800     321.5733   -8788.1301    46.968897    -8835.099    1733.8143 
   16000    283.94095   -8789.6582    41.472327   -8831.1306    7929.5592 
   16200    293.38022   -8799.4779    42.851024    -8842.329    53979.121 
   16400    326.85062   -8784.7794    47.739701   -8832.5191   -9769.4328 
   16600    284.01439   -8795.5965    41.483054   -8837.0796   -3552.5033 
   16800    276.97554   -8804.4398    40.454962   -8844.8948   -26991.011 
   17000    337.56268   -8784.9541    49.304301   -8834.2584   -6331.2463 
   17200    338.51401   -8788.4514    49.443252   -8837.8946   -21830.369 
   17400    267.21364   -8801.8967    39.029142   -8840.9258    33306.781 
   17600    301.03436   -8783.8138    43.968986   -8827.7828   -9485.9694 
   17800    311.69731   -8787.6783    45.526413   -8833.2047    -12152.32 
   18000    277.75551   -8801.6654    40.568885   -8842.2343    52711.924 
   18200    288.02612   -8783.8845    42.069006   -8825.9535   -21378.753 
   18400    255.11594   -8789.9492    37.262156   -8827.2114    15976.478 
   18600    255.52211   -8799.1513     37.32148   -8836.4727   -19659.868 
   18800    322.87178   -8786.3744    47.158553    -8833.533   -29828.583 
   19000    311.82677   -8786.2435    45.545322   -8831.7888    3340.7032 
   19200    256.16176   -8798.4296    37.414907   -8835.8445    13464.102 
   19400    270.60249   -8788.3099    39.524116    -8827.834    13196.743 
   19600    326.18711   -8787.4016     47.64279   -8835.0444    29483.505 
   19800    267.56624   -8803.8059    39.080642   -8842.8866   -36005.952 
   20000    318.13561   -8792.5809    46.466789   -8839.0477   -8121.7946 
   20200    355.68999   -8778.7639    51.951971   -8830.7159   -14733.226 
   20400    309.94635   -8793.9013    45.270669    -8839.172    2659.7267 
   20600    312.11496    -8786.086    45.587414   -8831.6734    1981.8434 
   20800    354.16914   -8776.8588    51.729836   -8828.5887   -25032.978 
   21000    309.76117   -8797.4466    45.243621   -8842.6902   -12787.037 
   21200    257.40944   -8799.5948    37.597143   -8837.1919   -30192.893 
   21400    344.88622   -8782.6889    50.373975   -8833.0629    10632.333 
   21600    246.17128   -8796.8746    35.955702   -8832.8303    4397.7397 
   21800     295.9767   -8787.0071    43.230266   -8830.2374   -16685.585 
   22000    342.21061   -8782.9404    49.983177   -8832.9236    6207.7399 
   22200    244.88093   -8801.7385    35.767234   -8837.5058   -1906.9638 
   22400    316.31689   -8790.3325    46.201148   -8836.5337    673.70107 
   22600    301.67218   -8794.2038    44.062145    -8838.266    23009.312 
   22800    277.71566    -8802.076    40.563065   -8842.6391    19290.218 
   23000    280.47777   -8788.5697    40.966497   -8829.5362   -21784.576 
   23200    301.43478   -8787.1958    44.027471   -8831.2232   -15754.641 
   23400    306.48798   -8788.1095    44.765541   -8832.8751    2847.1164 
   23600    266.27824     -8798.98    38.892518   -8837.8725    9173.5579 
   23800    322.14041   -8781.5593    47.051729   -8828.6111    16971.292 
   24000    280.22313   -8792.5914    40.929304   -8833.5207    23302.033 
   24200     300.0535   -8798.5188    43.825722   -8842.3445     14622.35 
   24400    307.34691   -8784.4788    44.890995   -8829.3698    4372.7149 
   24600    273.20777   -8795.1432    39.904643   -8835.0478    15054.088 
   24800     314.6347    -8794.029    45.955448   -8839.9844   -14349.265 
   25000    291.70787   -8784.3131    42.606762   -8826.9199    8733.7874 
   25200    303.66879   -8793.1831    44.353771   -8837.5369   -400.43028 
   25400    228.99871   -8799.6076    33.447481   -8833.0551   -3504.5672 
   25600     250.0952   -8803.8242    36.528828    -8840.353   -7137.1991 
   25800    335.96942   -8790.4874     49.07159    -8839.559   -38339.912 
   26000    243.00962   -8805.6046    35.493911   -8841.0985    27562.888 
   26200    273.96515   -8801.1103    40.015266   -8841.1256    61.239434 
   26400    330.58376   -8790.4213    48.284962   -8838.7063   -8679.4454 
   26600    290.11476   -8799.9363    42.374072   -8842.3104   -7048.1742 
   26800    297.30092   -8803.5632    43.423681   -8846.9869   -14225.618 
   27000    334.55625   -8785.8572    48.865183   -8834.7224   -6563.2401 
   27200    291.73222   -8797.1751    42.610318   -8839.7855    12594.303 
   27400    250.06774   -8809.3991    36.524817   -8845.9239    14121.144 
   27600    306.08072   -8792.3258    44.706056   -8837.0318    20529.629 
   27800    340.34657   -8785.5593    49.710916   -8835.2702   -18781.887 
   28000    277.91898   -8803.4965    40.592761   -8844.0892    1359.8698 
   28200    312.55738   -8792.3527    45.652034   -8838.0048     27684.09 
   28400    344.30518    -8794.927    50.289109   -8845.2161    4149.3442 
   28600    267.71964    -8795.108    39.103048    -8834.211     3686.805 
   28800    333.99008   -8791.0666    48.782488   -8839.8491    4622.0877 
   29000    281.74614   -8798.7677    41.151754   -8839.9195   -22758.399 
   29200    289.47989   -8798.6525    42.281344   -8840.9339   -17840.989 
   29400    349.58936   -8786.3874    51.060914   -8837.4484   -18672.324 
   29600    306.11319    -8801.388    44.710798   -8846.0988   -1494.6607 
   29800    315.63906   -8791.8646    46.102144   -8837.9667     6211.043 
   30000     261.7801   -8803.8232     38.23552   -8842.0587    5644.1418 
   30200    356.99958   -8791.5498    52.143248    -8843.693   -23389.868 
   30400    294.71693   -8795.5327    43.046264   -8838.5789   -12644.171 
   30600    247.38659   -8789.0548     36.13321    -8825.188   -2056.4635 
   30800    320.36812   -8785.5136    46.792869   -8832.3064   -8718.7991 
   31000    277.12928   -8797.6677    40.477417   -8838.1452    1886.4298 
   31200    327.28994   -8784.1754    47.803869   -8831.9793   -15096.856 
   31400    316.67191   -8791.5208    46.253002   -8837.7738   -21479.993 
   31600    289.78163   -8797.9718    42.325416   -8840.2973    22884.841 
   31800    324.45359    -8791.388    47.389591   -8838.7775   -9778.9821 
   32000    263.43032   -8804.8914    38.476552    -8843.368    22466.129 
   32200    334.30097   -8790.7025    48.827897   -8839.5304   -10913.091 
   32400    330.36853   -8785.4113    48.253526   -8833.6648    26484.842 
   32600    332.06314   -8792.3395     48.50104   -8840.8406   -30449.316 
   32800    289.16909   -8803.9264    42.235948   -8846.1624    3386.1512 
   33000    320.41069   -8787.1595    46.799087   -8833.9586    19534.149 
   33200    313.61628   -8790.8067    45.806698   -8836.6134   -13049.166 
   33400    314.14696   -8796.7926    45.884208   -8842.6768    13525.417 
   33600    336.50093    -8784.322    49.149222   -8833.4712   -27271.961 
   33800    315.71731   -8796.0956    46.113574   -8842.2092    -42605.27 
   34000    294.30201   -8794.7741    42.985661   -8837.7598   -14262.542 
   34200    323.22205   -8781.0642    47.209713   -8828.2739    10894.369 
   34400    310.25796   -8780.1099    45.316182   -8825.4261   -16365.002 
   34600    291.56551   -8793.7742    42.585969   -8836.3602    36282.228 
   34800    265.63929   -8802.4869    38.799193   -8841.2861    5263.1408 
   35000     341.9451   -8785.7588    49.944396   -8835.7032    5457.3832 
   35200    289.28913   -8792.5656    42.253482   -8834.8191   -10792.814 
   35400    242.86421   -8801.3854    35.472672    -8836.858    62946.527 
   35600    300.81771   -8791.5047    43.937343    -8835.442   -6671.3074 
   35800    305.11874   -8791.7749     44.56555   -8836.3404   -23776.831 
   36000     219.9875   -8806.7358    32.131307   -8838.8671    8910.1673 
   36200    287.47328   -8794.6811    41.988259   -8836.6694    13264.125 
   36400     278.4942   -8794.0053    40.676777   -8834.6821   -25952.575 
   36600    286.25292    -8796.249    41.810013    -8838.059   -2144.9506 
   36800    292.31454   -8786.5017    42.695372   -8829.1971   -23118.398 
   37000    279.63115   -8792.4261     40.84284    -8833.269    42725.915 
   37200    281.85124    -8800.744    41.167105   -8841.9111    6423.5407 
   37400    355.28983   -8782.6939    51.893523   -8834.5875    16371.675 
   37600    277.56975   -8783.3196    40.541752   -8823.8614    4280.6776 
   37800    281.41925   -8799.7218     41.10401   -8840.8258    16845.845 
   38000    312.80216   -8786.5342    45.687787    -8832.222   -11382.873 
   38200    312.68761   -8789.5605    45.671056   -8835.2316   -1775.3612 
   38400    273.13759   -8802.0317    39.894392   -8841.9261    4485.3942 
   38600    306.03152   -8791.1442    44.698869   -8835.8431    -4729.538 
   38800    315.64366   -8785.3376    46.102816   -8831.4405    5427.7758 
   39000    280.78641   -8801.5369    41.011576   -8842.5485    29024.291 
   39200    316.12144   -8785.7968      46.1726   -8831.9694    8817.7262 
   39400    287.67909   -8785.2718    42.018319   -8827.2901   -15400.218 
   39600    315.83744    -8795.087     46.13112   -8841.2181     1762.568 
   39800    231.21646   -8804.9669    33.771404   -8838.7383    27064.682 
   40000    274.86627   -8796.2778    40.146883   -8836.4247   -9420.4221 
   40200    267.75785   -8791.1602     39.10863   -8830.2688    6969.8741 
   40400    256.88623    -8807.147    37.520723   -8844.6678    20260.273 
   40600    291.41211   -8796.0495    42.563563    -8838.613   -20374.806 
   40800    335.01089   -8791.9878    48.931587   -8840.9194   -6227.9638 
   41000    313.18748   -8792.5603    45.744068   -8838.3044   -25072.565 
   41200    251.95358   -8803.0558    36.800262   -8839.8561   -389.53932 
   41400    368.46701   -8795.1939    53.818177   -8849.0121    -9608.033 
   41600    296.26901   -8790.0959    43.272961   -8833.3688   -23885.145 
   41800    273.74476   -8804.1156    39.983075   -8844.0987   -20279.456 
   42000    243.13474   -8814.3135    35.512185   -8849.8257   -35709.407 
   42200    274.50802   -8796.8986    40.094557   -8836.9932    -20652.88 
   42400    340.08681   -8785.8401    49.672974   -8835.5131    14904.544 
   42600    262.33784   -8800.8854    38.316985   -8839.2024   -3836.1684 
   42800    315.01043   -8795.4957    46.010326    -8841.506    11733.123 
   43000    305.67174   -8793.8983    44.646321   -8838.5446   -11459.444 
   43200     253.0787   -8803.6922    36.964597   -8840.6568    19119.308 
   43400    297.74072   -8791.2074    43.487918   -8834.6954   -1514.9438 
   43600    340.67465   -8790.5689    49.758834   -8840.3277   -26647.718 
   43800    247.28996   -8801.7044    36.119096   -8837.8235    32051.661 
   44000    317.04998   -8793.5223    46.308223   -8839.8305    -1767.954 
   44200    328.27875   -8786.7315    47.948294   -8834.6798    18593.026 
   44400    381.35749   -8779.2064    55.700957   -8834.9074   -18966.888 
   44600    317.12611   -8799.6698    46.319342   -8845.9891   -11046.142 
   44800    335.82555   -8790.8302    49.050576   -8839.8808     2025.683 
   45000    358.51346   -8784.9773    52.364366   -8837.3417    20209.211 
   45200    319.60586   -8794.1812    46.681534   -8840.8627    4393.0871 
   45400    262.03464   -8799.1569    38.272699   -8837.4296   -30065.368 
   45600    318.82863   -8792.5055    46.568012   -8839.0735   -25828.216 
   45800    325.79609   -8786.7601    47.585677   -8834.3458    17232.076 
   46000    281.29062   -8803.4577    41.085222   -8844.5429    26123.827 
   46200    290.91583     -8791.88    42.491076    -8834.371    35060.183 
   46400     281.4069   -8788.6602    41.102206   -8829.7624   -14716.198 
   46600    269.30387   -8807.2776    39.334441    -8846.612    -37085.24 
   46800    302.78796   -8799.1587    44.225117   -8843.3838    10819.015 
   47000    300.39402   -8794.8223    43.875459   -8838.6978    15885.014 
   47200    251.83259   -8808.2824     36.78259    -8845.065   -26554.737 
   47400    340.13353    -8794.068    49.679798   -8843.7478   -22353.583 
   47600    290.47486   -8788.2513    42.426669    -8830.678    22841.445 
   47800    254.41715   -8804.2642     37.16009   -8841.4243   -19407.779 
   48000    290.80916   -8798.2735    42.475497    -8840.749    -1547.215 
   48200     309.2428   -8792.2443    45.167909   -8837.4122    14579.301 
   48400    286.52841   -8797.0386    41.850251   -8838.8889    1628.7133 
   48600    247.32087   -8810.5794    36.123611    -8846.703    13009.913 
   48800    295.92646   -8790.2803    43.222927   -8833.5033   -45550.249 
   49000    314.87046   -8792.6515    45.989883   -8838.6414    25951.204 
   49200    274.32842   -8801.7992    40.068325   -8841.8675    1422.7251 
   49400     278.1579   -8794.6399    40.627657   -8835.2675   -9856.2437 
   49600    304.47482   -8792.0344    44.471499   -8836.5059    11204.232 
   49800    311.00199   -8789.3975    45.424855   -8834.8223    774.14182 
   50000    251.26538   -8801.7981    36.699744   -8838.4978   -12545.367 
   50200    376.77233    -8785.148    55.031251   -8840.1792    17969.369 
   50400    346.14904   -8791.2679    50.558423   -8841.8263   -22203.766 
   50600    269.37588    -8799.088    39.344958    -8838.433    17526.196 
   50800    279.43368    -8807.933    40.813998    -8848.747    12.601933 
   51000    290.68541   -8793.5025    42.457422   -8835.9599   -34830.912 
   51200    346.88736    -8787.888    50.666261   -8838.5543    10025.031 
   51400    298.98107   -8798.3485    43.669083   -8842.0176   -7626.9249 
   51600    282.20028   -8793.9333    41.218085   -8835.1514   -35537.667 
   51800    334.15011   -8783.4557    48.805862   -8832.2615   -24624.602 
   52000    320.15928   -8789.4615    46.762365   -8836.2238     5450.879 
   52200    291.91215    -8799.379    42.636599   -8842.0156    16976.746 
   52400    339.89208   -8781.8745    49.644533   -8831.5191    -36414.12 
   52600    277.13102   -8788.1759    40.477671   -8828.6536    9100.0592 
   52800    291.68789   -8795.6829    42.603843   -8838.2868    26434.865 
   53000    261.38442   -8810.8672    38.177729    -8849.045   -9735.8241 
   53200    300.33622     -8796.29    43.867016    -8840.157   -27132.013 
   53400    357.01792   -8787.4784    52.145928   -8839.6244   -4447.7203 
   53600    291.28749   -8799.5161    42.545361   -8842.0614    21446.102 
   53800    243.55458   -8799.3771    35.573507   -8834.9506   -32067.561 
   54000    321.21388   -8784.9817      46.9164   -8831.8981    -10243.42 
   54200    263.51535   -8799.4398    38.488971   -8837.9288    2040.1302 
   54400    334.78904   -8790.3222    48.899184   -8839.2214      14135.2 
   54600     363.6823   -8789.5046    53.119326   -8842.6239   -7350.0506 
   54800    265.70875   -8801.7578    38.809338   -8840.5672   -4956.3929 
   55000    265.33671   -8792.9354    38.754998   -8831.6904    -19915.98 
   55200    301.80808   -8789.8072    44.081995   -8833.8892    -25404.03 
   55400    328.79957   -8789.1509    48.024364   -8837.1753   -1415.7567 
   55600    268.19007   -8798.6922    39.171759   -8837.8639   -2580.4171 
   55800    330.55501   -8786.8254    48.280763   -8835.1061    12737.172 
   56000    270.16257   -8804.6062    39.459862   -8844.0661    16654.135 
   56200    263.24382   -8791.1358    38.449311   -8829.5852    134.67436 
   56400    332.50908   -8792.7072    48.566174   -8841.2734   -12355.636 
   56600    327.38051   -8788.9211    47.817096   -8836.7382   -2860.4743 
   56800    281.47162   -8785.5729    41.111658   -8826.6845    15876.304 
   57000    312.96495   -8794.7978    45.711564   -8840.5094   -8834.2919 
   57200    319.90647   -8786.4604    46.725441   -8833.1858    15302.783 
   57400    322.80519   -8787.8064    47.148827   -8834.9553    -4807.508 
   57600    337.40132   -8791.7788    49.280734   -8841.0596   -12320.996 
   57800    252.24987   -8802.2646    36.843539   -8839.1081    19227.647 
   58000    297.54784   -8798.7306    43.459746   -8842.1903   -20123.697 
   58200    355.97616   -8785.2394    51.993769   -8837.2331    -12447.61 
   58400    247.10572   -8800.5326    36.092186   -8836.6248   -10143.632 
   58600    292.89959    -8796.452    42.780825   -8839.2328   -11014.121 
   58800    339.45761   -8787.9459    49.581074    -8837.527    -38934.11 
   59000    329.03026    -8779.037    48.058058    -8827.095    23379.331 
   59200    304.90064   -8796.7285    44.533693   -8841.2622   -33850.358 
   59400    301.41188   -8791.4881    44.024127   -8835.5122    2870.3478 
   59600    326.89242   -8791.6685    47.745806   -8839.4143   -14137.083 
   59800    292.31622    -8793.534    42.695618   -8836.2296   -18123.436 
   60000    311.90755   -8791.8016    45.557122   -8837.3587   -22772.463 
   60200    310.38504   -8794.5106    45.334744   -8839.8453   -1294.4577 
   60400    306.16129   -8795.8567    44.717824   -8840.5745   -16175.229 
   60600    287.65866    -8782.238    42.015335   -8824.2534   -31697.623 
   60800    275.29169   -8799.2102    40.209019   -8839.4193   -3900.8166 
   61000     296.1626   -8796.5095    43.257418   -8839.7669   -18849.088 
   61200    315.44683   -8790.2576    46.074067   -8836.3317   -33771.091 
   61400    289.30987   -8790.1095     42.25651    -8832.366     2834.629 
   61600    270.14273     -8801.86    39.456963    -8841.317   -31537.533 
   61800    243.76236   -8801.0982    35.603856   -8836.7021   -16916.432 
   62000    318.11166   -8783.7912    46.463292   -8830.2545    3845.8028 
   62200    248.73823   -8798.5695    36.330629   -8834.9001   -10589.127 
   62400    338.46491   -8790.6657     49.43608   -8840.1018   -5704.8774 
   62600    351.82275   -8783.2683    51.387122   -8834.6554    12367.897 
   62800    291.31986   -8788.2567     42.55009   -8830.8068    18649.538 
   63000     331.2564   -8792.5641    48.383209   -8840.9473    31294.404 
   63200     257.5184   -8794.9305    37.613059   -8832.5435     -43102.1 
   63400    269.69855   -8801.9902    39.392087   -8841.3823   -25650.213 
   63600    289.00948   -8790.9452    42.212636   -8833.1579   -10620.542 
   63800    315.89006   -8791.3692    46.138805    -8837.508    6321.5161 
   64000    254.70449   -8807.8827    37.202059   -8845.0848   -20397.318 
   64200    270.17052   -8807.0525    39.461023   -8846.5135     7622.541 
   64400    305.36841   -8792.7921    44.602017   -8837.3941    8359.0984 
   64600    323.45507   -8784.2815    47.243748   -8831.5253   -3332.1594 
   64800    306.34529   -8801.7724    44.744699   -8846.5171     -1983.36 
   65000    294.17422   -8788.8935    42.966995   -8831.8605   -14104.278 
   65200    322.92678   -8788.0144    47.166586    -8835.181     4561.104 
   65400    256.79821   -8805.9299    37.507868   -8843.4378   -16284.794 
   65600     298.6837   -8792.5069     43.62565   -8836.1325   -15218.209 
   65800    282.46566    -8786.549    41.256847   -8827.8059    22129.899 
   66000    294.38812   -8771.9869    42.998238   -8814.9851   -16929.246 
   66200    322.99583   -8793.6652    47.176671   -8840.8418    6354.7513 
   66400    268.48431   -8794.0929    39.214736   -8833.3077     19297.53 
   66600    321.33929   -8788.2247    46.934718   -8835.1595    10708.268 
   66800    304.86426   -8792.9404    44.528379   -8837.4688    9697.6671 
   67000    276.20227   -8792.8774    40.342019   -8833.2195    -11175.38 
   67200    320.17244   -8785.5876    46.764288   -8832.3518    7207.1498 
   67400    307.16185   -8799.0161    44.863966   -8843.8801    19500.979 
   67600    362.90809   -8789.2839    53.006244   -8842.2901   -7651.8392 
   67800    261.78899   -8783.2501    38.236819   -8821.4869    38081.443 
   68000    264.81209   -8791.6914    38.678373   -8830.3698    -22206.58 
   68200    275.71563   -8796.2639    40.270941   -8836.5348    9039.0908 
   68400    271.24287   -8807.3524    39.617649   -8846.9701   -10940.525 
   68600    311.12747   -8792.5193    45.443182   -8837.9625    10542.384 
   68800    328.12962   -8785.7588    47.926512   -8833.6853   -21818.278 
   69000    278.55198   -8801.9642    40.685217   -8842.6494    8742.3759 
   69200    293.49735   -8797.2293    42.868132   -8840.0975    2475.8892 
   69400    339.91811    -8789.897    49.648335   -8839.5454    20443.317 
   69600     292.9115   -8798.2161    42.782564   -8840.9987   -27282.423 
   69800    300.39065   -8786.2642    43.874966   -8830.1392   -18727.836 
   70000    340.77002   -8786.8274    49.772764   -8836.6001   -42713.749 
   70200    297.52965    -8801.277    43.457089    -8844.734   -9565.1558 
   70400    338.22393   -8786.9592    49.400884   -8836.3601    20020.101 
   70600    294.68221   -8789.2169    43.041192   -8832.2581   -12480.745 
   70800    269.40153   -8806.0536    39.348704   -8845.4023    6964.3593 
   71000    316.78868    -8791.958    46.270057   -8838.2281    11162.479 
   71200    267.04097   -8793.2208    39.003922   -8832.2247   -7363.7713 
   71400    263.05129   -8799.3095     38.42119   -8837.7307    5837.2757 
   71600    314.00279   -8794.5882     45.86315   -8840.4514    5310.6194 
   71800    321.97175   -8782.4294    47.027095   -8829.4565   -1497.1257 
   72000    297.59079   -8802.2094     43.46602   -8845.6754   -2558.4895 
   72200    336.01447   -8796.3218     49.07817   -8845.3999   -13249.688 
   72400    324.44638   -8787.1411    47.388539   -8834.5296   -6428.2287 
   72600    275.32293   -8794.8354    40.213583    -8835.049    31000.938 
   72800    222.72108   -8812.5992    32.530572   -8845.1297    40745.359 
   73000    288.57498   -8800.5139    42.149174   -8842.6631    12212.654 
   73200    318.62805    -8787.618    46.538716   -8834.1567    -36845.61 
   73400     320.8002   -8792.3636    46.855979   -8839.2196   -11562.146 
   73600    330.14586    -8799.513    48.221002    -8847.734    2341.1814 
   73800    292.55822   -8790.7025    42.730964   -8833.4335    23214.159 
   74000    327.72155   -8792.4449    47.866909   -8840.3118   -13285.288 
   74200    307.48376   -8795.9644    44.910983   -8840.8754   -18516.478 
   74400    243.22909   -8801.9068    35.525967   -8837.4328   -41339.681 
   74600      313.619    -8785.087    45.807094   -8830.8941   -2617.6915 
   74800     278.3386   -8790.4957     40.65405   -8831.1498   -18789.306 
   75000     269.8507   -8809.9268    39.414311   -8849.3411    10092.076 
   75200    267.33207    -8797.848    39.046441   -8836.8944    26415.115 
   75400     320.7447   -8792.2517    46.847872   -8839.0996    24670.715 
   75600    233.90143   -8795.5023    34.163571   -8829.6659   -6601.6904 
   75800    257.72971   -8802.4618    37.643923   -8840.1057    6800.2459 
   76000    327.70933   -8785.0735    47.865124   -8832.9386    22421.596 
   76200    362.38952   -8788.8713    52.930502   -8841.8018   -31299.226 
   76400    236.04374   -8807.8169    34.476475   -8842.2934    2658.2934 
   76600    278.69208   -8794.2287     40.70568   -8834.9343   -16561.078 
   76800    276.74848    -8789.341    40.421798   -8829.7628    13654.986 
   77000    256.85114   -8804.7129    37.515598   -8842.2285    11305.134 
   77200    304.94852   -8791.9209    44.540687   -8836.4616    29365.688 
   77400    331.57394   -8784.3891    48.429587   -8832.8186    -8441.646 
   77600    267.05731   -8799.6952    39.006308   -8838.7015    21703.068 
   77800    263.09324   -8794.8937    38.427318    -8833.321   -20637.909 
   78000     388.0407   -8785.7384    56.677106   -8842.4155   -922.11045 
   78200    281.80314   -8806.6402     41.16008   -8847.8003   -839.00662 
   78400    277.79213   -8793.0217    40.574233   -8833.5959    12755.512 
   78600    280.63282   -8787.6858    40.989143   -8828.6749   -5979.6141 
   78800    438.14545   -8771.2197    63.995389   -8835.2151   -38898.389 
   79000    292.30894   -8792.2223    42.694553   -8834.9168    20660.608 
   79200    259.62873   -8792.3436    37.921292   -8830.2649    11569.263 
   79400    378.92614   -8779.6619    55.345836   -8835.0078   -14611.049 
   79600    296.47147   -8796.8452    43.302531   -8840.1478    1091.7457 
   79800    327.12006   -8798.3587    47.779056   -8846.1378    -4074.828 
   80000    327.08306   -8787.3324    47.773651    -8835.106   -1116.4253 
   80200    255.43098   -8791.6296    37.308171   -8828.9377   -9934.4683 
   80400      337.988    -8789.434    49.366423   -8838.8004   -6853.9091 
   80600    310.48106   -8790.7323    45.348769    -8836.081   -22606.541 
   80800    278.94681   -8801.7816    40.742886   -8842.5245    12212.574 
   81000    369.19292   -8783.4282    53.924204   -8837.3524   -1030.1682 
   81200    268.81708   -8790.2341     39.26334   -8829.4974    10044.612 
   81400    272.29029   -8796.0678    39.770636   -8835.8384   -14145.251 
   81600    219.95596   -8798.1102      32.1267   -8830.2369    52449.593 
   81800    305.71053   -8784.2611    44.651986   -8828.9131   -8450.6192 
   82000     308.7613   -8800.0683    45.097581   -8845.1659    8010.5219 
   82200     271.6682   -8801.1821    39.679773   -8840.8619   -43036.915 
   82400     278.1208   -8790.6188    40.622239   -8831.2411    17310.658 
   82600    312.60287    -8785.101     45.65868   -8830.7597   -6945.7039 
   82800    259.58875    -8802.533    37.915452   -8840.4485    54928.205 
   83000    295.53799   -8787.6923    43.166187   -8830.8585    50816.111 
   83200    282.20575   -8787.9551    41.218886   -8829.1739   -48741.112 
   83400    244.11961   -8803.7946    35.656035   -8839.4507    2806.9216 
   83600    350.64135   -8790.5354    51.214568     -8841.75   -9921.3188 
   83800    309.46119   -8789.6754    45.199806   -8834.8752   -1159.7568 
   84000    275.75907   -8808.5433    40.277284   -8848.8205   -25888.453 
   84200    264.49935   -8795.7454    38.632694   -8834.3781   -1159.6775 
   84400    303.44769   -8787.8482    44.321476   -8832.1697   -11841.192 
   84600    299.83952   -8796.2256    43.794469     -8840.02   -15786.654 
   84800    299.13825   -8796.7369     43.69204   -8840.4289   -24181.149 
   85000    379.94088   -8782.2742    55.494048   -8837.7682    4308.7607 
   85200     291.1609   -8797.8916    42.526872   -8840.4185   -32761.595 
   85400    262.96822    -8793.373    38.409058    -8831.782   -32867.649 
   85600    329.42048   -8785.6544    48.115055   -8833.7694    12172.253 
   85800      239.116   -8802.8873    34.925209   -8837.8125   -2264.4962 
   86000     271.4185   -8792.5111    39.643302   -8832.1544    28214.634 
   86200    286.06219   -8788.8753    41.782156   -8830.6575   -33942.623 
   86400    311.63533    -8795.464    45.517361   -8840.9814    17848.029 
   86600    223.79517   -8808.8401    32.687453   -8841.5275   -18180.142 
   86800    310.71422   -8793.3316    45.382823   -8838.7145    11145.061 
   87000    325.42874   -8792.2012    47.532022   -8839.7333    -6945.292 
   87200    263.56907   -8806.1082    38.496818    -8844.605   -12653.955 
   87400    303.54326   -8786.8455    44.335435    -8831.181     -17021.9 
   87600    331.71026   -8791.2437    48.449498   -8839.6932    10023.353 
   87800    313.77231   -8803.3506    45.829487   -8849.1801    25877.432 
   88000    239.81683   -8800.7317    35.027573   -8835.7593    33742.491 
   88200    304.55561    -8787.708    44.483298   -8832.1913    1623.4818 
   88400    275.82623   -8799.6961    40.287095   -8839.9832   -2882.6896 
   88600    248.37963   -8809.5481    36.278253   -8845.8264    -31680.46 
   88800    311.46314   -8790.0514    45.492211   -8835.5436    2592.9244 
   89000    329.05993   -8785.9836    48.062392    -8834.046   -21310.615 
   89200     270.8809   -8801.8845    39.564781   -8841.4493   -13144.681 
   89400    295.91486   -8790.9239    43.221234   -8834.1451   -40117.641 
   89600     301.4853   -8792.0245     44.03485   -8836.0593   -11165.508 
   89800    250.54244   -8792.8397    36.594152   -8829.4338   -6559.3111 
   90000    324.70133   -8787.0054    47.425776   -8834.4312   -4445.2193 
   90200     306.4535   -8788.9849    44.760504   -8833.7454   -2325.9197 
   90400    272.90104   -8796.8797    39.859841   -8836.7395   -15041.819 
   90600    248.51641   -8804.2017    36.298231   -8840.4999   -15499.827 
   90800    392.15962    -8788.307    57.278714   -8845.5857   -8672.0172 
   91000    229.08313   -8798.2891    33.459812   -8831.7489     5337.323 
   91200    297.80835   -8791.4206    43.497795   -8834.9184   -8610.2503 
   91400    282.42689   -8784.8084    41.251185   -8826.0596   -27371.678 
   91600    318.61812   -8794.4979    46.537264   -8841.0352    15663.442 
   91800    242.54199   -8808.5866    35.425608   -8844.0122   -206.82993 
   92000    329.39708   -8794.5329    48.111637   -8842.6445     3426.406 
   92200    354.83501   -8786.9103    51.827093   -8838.7374     41334.29 
   92400    263.79846   -8798.2081    38.530321   -8836.7385    13496.013 
   92600    248.42967    -8803.876    36.285561   -8840.1616   -20142.525 
   92800    319.59806   -8787.2572    46.680394   -8833.9376   -6471.1061 
   93000    286.28661    -8798.407    41.814935   -8840.2219    8138.0933 
   93200     249.2438   -8801.4974    36.404472   -8837.9018   -21975.176 
   93400    327.97884   -8787.9462    47.904489   -8835.8507    6048.3193 
   93600    310.15277   -8794.7433    45.300818   -8840.0441    1189.1418 
   93800    361.89763   -8775.9573    52.858656    -8828.816   -20214.333 
   94000    253.87245    -8791.872    37.080532   -8828.9525    4285.5598 
   94200    255.29298   -8796.1154    37.288014   -8833.4034    1147.8464 
   94400    265.96726    -8800.589    38.847096    -8839.436   -374.15687 
   94600    341.50054   -8784.9656    49.879464   -8834.8451    25416.418 
   94800    304.83228   -8795.4832    44.523709   -8840.0069    3514.0427 
   95000     268.8923   -8800.3445    39.274326   -8839.6189   -41985.617 
   95200    325.27861    -8788.891    47.510094   -8836.4011    23305.626 
   95400    317.12986   -8793.2454    46.319889   -8839.5653   -14783.867 
   95600    277.08068     -8803.93    40.470319   -8844.4003    157.23133 
   95800     317.3141   -8786.7168      46.3468   -8833.0636   -21283.842 
   96000    272.82472   -8792.9743    39.848695    -8832.823    13441.489 
   96200    261.94964   -8811.3024    38.260283   -8849.5627   -15633.368 
   96400    268.49375   -8798.3661    39.216114   -8837.5822    20804.171 
   96600    306.65007   -8787.9907    44.789214   -8832.7799   -5450.2498 
   96800    299.83531   -8796.0712    43.793854    -8839.865   -6559.7989 
   97000    216.87744   -8804.0483    31.677053   -8835.7253    19487.231 
   97200    286.93151   -8791.3942    41.909128   -8833.3033    15326.603 
   97400    321.68788   -8789.4702    46.985633   -8836.4558    25837.599 
   97600    249.81553   -8802.9654    36.487979   -8839.4534    28019.555 
   97800    343.32353   -8782.5564    50.145729   -8832.7021    17336.648 
   98000    301.87623   -8793.0632    44.091949   -8837.1552    3604.7779 
   98200     252.3378   -8798.3182    36.856382   -8835.1745    38114.733 
   98400    352.95266   -8778.8303    51.552157   -8830.3825    6319.7923 
   98600    280.21585   -8795.7162     40.92824   -8836.6444    63924.569 
   98800    282.31041   -8793.0781    41.234172   -8834.3122   -31922.911 
   99000    260.30467   -8797.3778     38.02002   -8835.3978    20405.117 
   99200    332.46701   -8798.1103    48.560029   -8846.6703   -34137.648 
   99400    274.73851   -8788.6596    40.128222   -8828.7879    11463.614 
   99600    292.98693   -8795.0003     42.79358   -8837.7939    45147.062 
   99800    232.01473   -8807.6919       33.888   -8841.5799    7778.6234 
  100000    237.59745   -8793.8047    34.703411   -8828.5081   -2761.7098 
  100200    323.06122    -8785.259    47.186222   -8832.4452   -3252.4457 
  100400    302.32073   -8801.7907    44.156872   -8845.9475   -5209.2509 
  100600    256.57922   -8798.3089    37.475882   -8835.7848     8570.882 
  100800    292.98559   -8793.2027    42.793386   -8835.9961    44630.527 
  101000    321.98011   -8789.4073    47.028316   -8836.4356   -6740.0938 
  101200    345.70162   -8778.6578    50.493073   -8829.1508    6958.8962 
  101400    242.66225   -8795.5785    35.443174   -8831.0217   -33661.953 
  101600    336.42442   -8792.7136    49.138048   -8841.8516   -6985.5848 
  101800     379.1021   -8775.9218    55.371536   -8831.2933   -10954.459 
  102000    257.82242   -8792.1823    37.657463   -8829.8398     5316.666 
  102200    291.27399    -8799.219    42.543389   -8841.7624   -3995.9945 
  102400    299.40961   -8795.7037    43.731675   -8839.4354   -26096.441 
  102600    313.42018    -8781.736    45.778055    -8827.514    12696.817 
  102800    271.20581   -8797.4761    39.612238   -8837.0883     4273.269 
  103000    315.83227   -8795.0629    46.130365   -8841.1932    8107.6081 
  103200    293.36367    -8785.335    42.848608   -8828.1836    11184.222 
  103400    323.52843   -8793.8646    47.254463    -8841.119    9048.1599 
  103600    237.04505   -8811.3924    34.622728   -8846.0152   -16546.223 
  103800    265.73812   -8792.8255    38.813628   -8831.6392    4011.5352 
  104000     352.8782    -8789.136    51.541281   -8840.6773   -17640.287 
  104200    232.58001    -8801.562    33.970565   -8835.5326   -31905.786 
  104400    295.54408    -8793.623    43.167077   -8836.7901    29966.919 
  104600    307.78039    -8790.537     44.95431   -8835.4913   -45135.105 
  104800    259.56836   -8804.7079    37.912475   -8842.6204    3197.5932 
  105000    293.49228   -8793.2756    42.867392    -8836.143   -248.14675 
  105200     323.8289   -8787.9877    47.298349    -8835.286    21294.718 
  105400    286.03254   -8792.1193    41.777825   -8833.8971    16205.976 
  105600     309.7465   -8792.6976    45.241478   -8837.9391   -8666.0263 
  105800    285.97291   -8791.9996    41.769116   -8833.7687   -10815.023 
  106000    293.00575   -8789.6367     42.79633    -8832.433   -6843.7514 
  106200    250.42647    -8804.998    36.577213   -8841.5752   -8407.1063 
  106400    302.86577   -8788.3707    44.236482   -8832.6072   -19005.161 
  106600    326.49641   -8785.2777    47.687965   -8832.9657    2965.4319 
  106800    262.57159   -8799.0327    38.351126   -8837.3838   -16814.368 
  107000    319.21177   -8786.1642    46.623973   -8832.7882    7524.8347 
  107200    278.44949   -8785.7072    40.670246   -8826.3775   -18242.534 
  107400    292.24584   -8799.8567    42.685337   -8842.5421   -28398.661 
  107600    314.17929   -8791.9109     45.88893   -8837.7998    3168.4369 
  107800    321.18597   -8787.3517    46.912324   -8834.2641    -16825.05 
  108000    324.09659   -8782.6557    47.337449   -8829.9931   -38541.592 
  108200    299.95726   -8795.5621    43.811666   -8839.3738   -4244.5337 
  108400    311.67373   -8783.9497     45.52297   -8829.4726   -31193.607 
  108600      298.854   -8784.4434    43.650524   -8828.0939    41842.709 
  108800    315.35746   -8792.1609    46.061013   -8838.2219    22399.654 
  109000    300.07877   -8797.5105    43.829413   -8841.3399    10112.873 
  109200    293.62391   -8801.2317    42.886617   -8844.1184   -159.20852 
  109400    316.82838   -8784.5785    46.275855   -8830.8544   -17242.504 
  109600    283.64489   -8800.1239    41.429085    -8841.553     8289.019 
  109800    256.75155   -8799.4965    37.501053   -8836.9976   -2859.4871 
  110000    306.67112   -8791.7137     44.79229    -8836.506    10342.051 
  110200    296.65221   -8799.4955    43.328931   -8842.8244    -9124.292 
  110400     242.0969   -8813.7173    35.360599   -8849.0779     1778.579 
  110600    304.69957    -8797.657    44.504325   -8842.1613    8545.3228 
  110800    311.34705   -8785.7608    45.475255    -8831.236    3529.9076 
  111000    263.03793   -8797.6799    38.419239   -8836.0992    9180.5549 
  111200    247.47892   -8795.7233    36.146695     -8831.87    17244.132 
  111400    328.52996   -8789.9398    47.984985   -8837.9247    15239.719 
  111600    283.37252   -8795.4095    41.389303   -8836.7988   -36326.426 
  111800    329.11157   -8794.3356    48.069935   -8842.4055    25856.112 
  112000    312.50286   -8791.5853    45.644071   -8837.2294    -21945.49 
  112200    334.20347    -8784.861    48.813656   -8833.6746    452.46657 
  112400    297.74901   -8793.6804    43.489129   -8837.1695    11930.107 
  112600    262.60733   -8797.7964    38.356345   -8836.1527    27564.697 
  112800    374.60728   -8782.8691    54.715024   -8837.5841    18057.674 
  113000    289.05385   -8794.0613    42.219116   -8836.2804   -863.55947 
  113200    282.91098   -8801.6747    41.321891   -8842.9966   -1474.2887 
  113400    358.39601   -8786.9988    52.347211    -8839.346     8038.664 
  113600    282.65082   -8792.5571    41.283892    -8833.841   -3587.5083 
  113800    261.19527   -8803.7084    38.150101   -8841.8585    8620.3521 
  114000    343.32073   -8783.4827     50.14532    -8833.628    -2445.177 
  114200    281.92351   -8796.7917    41.177662   -8837.9693    3417.7392 
  114400    295.62366   -8800.9346    43.178701   -8844.1133   -808.27126 
  114600    321.08058   -8784.9085     46.89693   -8831.8054   -4633.7878 
  114800    273.01676   -8792.3507    39.876745   -8832.2274    6102.7177 
  115000      321.327   -8800.2502    46.932923   -8847.1832   -2267.3858 
  115200    399.52589   -8778.6213    58.354629   -8836.9759    10113.602 
  115400    278.87995    -8794.876     40.73312   -8835.6091   -2578.7453 
  115600    283.31139   -8797.8881    41.380374   -8839.2685    17624.695 
  115800    350.30335   -8778.2322      51.1652   -8829.3974    1133.7087 
  116000    373.54593   -8787.2159    54.560003   -8841.7759    24088.992 
  116200    313.11412   -8797.1077    45.733351    -8842.841   -898.30328 
  116400    272.49052   -8787.7439    39.799882   -8827.5438     51708.05 
  116600    342.20922   -8778.1791    49.982973   -8828.1621   -57451.629 
  116800    312.77691    -8795.511    45.684099   -8841.1951   -18438.397 
  117000    262.12892    -8794.724    38.286469   -8833.0104    15707.902 
  117200    340.99508   -8776.7466    49.805637   -8826.5522    16440.086 
  117400    323.11047   -8789.4746    47.193416    -8836.668   -14067.845 
  117600    276.09791   -8797.5505    40.326775   -8837.8773   -10819.828 
  117800    321.00467   -8782.6817    46.885843   -8829.5676    16261.582 
  118000    243.36186   -8796.3474    35.545358   -8831.8928   -13250.031 
  118200    298.90973   -8795.9564    43.658663    -8839.615    6074.9237 
  118400    327.91446   -8785.7089    47.895085    -8833.604   -18788.607 
  118600    276.07743   -8804.3453    40.323784   -8844.6691   -23879.146 
  118800    268.11081   -8802.1131    39.160182   -8841.2732   -7121.6285 
  119000    342.49359   -8789.1031    50.024509   -8839.1276    9620.5347 
  119200    291.63457   -8798.0767    42.596056   -8840.6727   -8782.1341 
  119400    266.30963   -8800.9631    38.897103   -8839.8602    13951.776 
  119600    337.13734    -8785.096    49.242176   -8834.3382    18517.598 
  119800     265.8136    -8794.935    38.824652   -8833.7596    17125.122 
  120000    230.48407   -8811.5414    33.664432   -8845.2058   -9287.1204 
  120200    253.27285    -8805.198    36.992955    -8842.191    42756.402 
  120400    284.93483    -8792.222    41.617494   -8833.8395    4818.5462 
  120600    350.54771   -8779.8775    51.200891   -8831.0784    2420.3126 
  120800    277.37862   -8797.5536    40.513836   -8838.0675    4222.3438 
  121000    278.20906   -8794.2609    40.635129    -8834.896   -28655.286 
  121200    325.06072   -8779.4177    47.478269    -8826.896    538.14076 
  121400    314.46076   -8796.5276    45.930042   -8842.4577   -24763.558 
  121600    281.74094   -8794.6514    41.150995   -8835.8024     5914.725 
  121800    368.80073   -8779.1981    53.866921    -8833.065   -10433.828 
  122000    231.17295   -8799.2477    33.765051   -8833.0127    11607.414 
  122200    280.06772   -8789.2433    40.906605   -8830.1499   -4831.6082 
  122400     252.6378   -8794.8334      36.9002   -8831.7336    30415.664 
  122600    288.38247   -8798.1166    42.121054   -8840.2377    16823.194 
  122800    285.60436   -8789.5352    41.715285   -8831.2505    4777.8645 
  123000    235.56466   -8799.8498    34.406502   -8834.2563    1113.7732 
  123200    375.14403   -8782.9281    54.793422   -8837.7215    15881.503 
  123400    284.84704   -8794.5918    41.604672   -8836.1964    -9680.201 
  123600    318.00418    -8796.628    46.447593   -8843.0756    7332.7641 
  123800    337.20318    -8783.705    49.251793   -8832.9568    940.98571 
  124000    255.01811   -8804.6188    37.247867   -8841.8667     28179.88 
  124200    331.23682   -8789.0321    48.380348   -8837.4124   -25751.023 
  124400    353.35646   -8786.0661    51.611136   -8837.6773   -65838.116 
  124600    278.47085   -8801.7196    40.673367   -8842.3929   -13263.401 
  124800    342.32973   -8791.3721    50.000576   -8841.3727    13156.711 
  125000    310.36485   -8792.0045    45.331795   -8837.3363   -1761.9367 
  125200    307.11556   -8791.7869    44.857205   -8836.6441    49066.649 
  125400    284.59306   -8791.1854    41.567575    -8832.753   -21059.168 
  125600    314.85615   -8797.7549    45.987793   -8843.7427    11387.458 
  125800    258.49651   -8803.6456    37.755921   -8841.4016     7852.396 
  126000     342.4579   -8788.1167    50.019296    -8838.136   -7277.1515 
  126200    277.54399   -8795.5531     40.53799   -8836.0911     37234.14 
  126400    295.75597   -8806.2797    43.198025   -8849.4778     5161.049 
  126600    337.37815   -8792.6927    49.277349     -8841.97   -15837.896 
  126800    316.01336   -8793.0125    46.156815   -8839.1693   -5722.9306 
  127000    293.72883   -8799.3088    42.901942   -8842.2107   -16963.046 
  127200    337.90536   -8783.9692    49.354352   -8833.3235   -4427.5816 
  127400    289.42434   -8795.9919    42.273231   -8838.2652    2763.1249 
  127600    355.95709   -8788.6759    51.990984   -8840.6669   -24649.458 
  127800    292.70633   -8787.1983    42.752597   -8829.9509    12749.338 
  128000    287.79281   -8794.5683    42.034929   -8836.6032   -7953.0535 
  128200    363.30105   -8784.1397     53.06364   -8837.2033    3522.8787 
  128400    295.04462   -8790.3445    43.094126   -8833.4387    12683.676 
  128600    314.53801   -8792.5307    45.941325    -8838.472    5480.4059 
  128800    307.87795   -8792.8615    44.968559     -8837.83   -24050.383 
  129000     292.0506   -8792.8547     42.65682   -8835.5115    7369.6971 
  129200    319.82128   -8783.8775    46.712997   -8830.5905   -22549.158 
  129400    288.54863    -8801.533    42.145324   -8843.6783    11725.755 
  129600    299.74007   -8795.6334    43.779943   -8839.4134    6786.0261 
  129800    290.99171   -8788.8287    42.502159   -8831.3308   -16409.754 
  130000    331.46792   -8793.3318    48.414103   -8841.7459   -389.98903 
  130200    246.89602   -8809.3842    36.061556   -8845.4458    805.40786 
  130400    264.99108   -8791.9722    38.704516   -8830.6767   -13923.904 
  130600    315.79353   -8787.9326    46.124706   -8834.0573    34740.209 
  130800    233.56885   -8802.5663    34.114994   -8836.6813   -17494.238 
  131000    312.89502    -8781.283     45.70135   -8826.9844    10843.096 
  131200    305.36293   -8788.7707    44.601215   -8833.3719   -13815.115 
  131400    294.71644   -8797.5588    43.046192    -8840.605     3864.834 
  131600    372.82599   -8775.7765    54.454849   -8830.2313   -15793.637 
  131800    359.57247   -8786.7148    52.519045   -8839.2339   -19425.013 
  132000    320.66091   -8795.6986    46.835634   -8842.5342   -11263.606 
  132200    363.45003   -8781.2787      53.0854   -8834.3641     36647.33 
  132400    322.15497   -8781.4237    47.053855   -8828.4775    29546.388 
  132600    316.98627   -8798.3926    46.298918   -8844.6915    5762.9513 
  132800    270.11106   -8792.3771    39.452338   -8831.8295   -24035.993 
  133000    291.82214   -8788.1792    42.623451   -8830.8026    28952.168 
  133200    259.98524   -8807.2464    37.973365   -8845.2198    12127.429 
  133400    308.08998   -8796.1806    44.999527   -8841.1802   -38991.967 
  133600    331.83838   -8788.5662    48.468212   -8837.0344    14671.433 
  133800    285.15008   -8794.8303    41.648933   -8836.4793   -16474.788 
  134000    261.67223   -8803.9284    38.219765   -8842.1481   -6525.7205 
  134200    320.35774   -8785.9252    46.791353   -8832.7166   -13470.455 
  134400    317.89861   -8791.7965    46.432173   -8838.2286    11245.701 
  134600    257.23755   -8807.5169    37.572038   -8845.0889   -6820.5404 
  134800    286.60705    -8794.106    41.861738   -8835.9678    6301.1551 
  135000    292.70076   -8788.4899    42.751783   -8831.2417    17988.572 
  135200    317.53408   -8793.0962    46.378931   -8839.4751    40248.807 
  135400      274.219   -8797.6669    40.052343   -8837.7192    31194.158 
  135600    294.91018   -8785.7356     43.07449   -8828.8101     23925.94 
  135800    278.73258    -8793.605    40.711594   -8834.3166   -35963.828 
  136000    267.58202   -8805.1572    39.082948   -8844.2401    325.07569 
  136200    273.81041   -8797.9762    39.992664   -8837.9689   -13894.205 
  136400     320.9519   -8788.0875    46.878136   -8834.9656    31562.983 
  136600    256.72525   -8794.3718    37.497212    -8831.869    981.48088 
  136800    287.68601   -8803.6269     42.01933   -8845.6463   -13257.753 
  137000    291.45027   -8789.4115    42.569137   -8831.9807   -11813.743 
  137200    273.93306    -8794.189    40.010578   -8834.1995    16397.831 
  137400    335.72688   -8791.3784    49.036164   -8840.4146   -28.121104 
  137600    264.19935   -8785.7698    38.588876   -8824.3587    28534.324 
  137800    274.69917   -8796.4845    40.122477   -8836.6069    3734.9754 
  138000    311.34618     -8788.86    45.475127   -8834.3351   -8259.9173 
  138200    323.60617   -8783.1068    47.265818   -8830.3727   -1468.1066 
  138400    294.26948   -8800.0961    42.980909    -8843.077   -15745.939 
  138600    288.90487   -8797.7488    42.197357   -8839.9462    15635.637 
  138800    310.49459   -8789.6466    45.350745   -8834.9973    13155.505 
  139000    297.19136   -8786.2775    43.407678   -8829.6851   -5723.2139 
  139200    247.88847   -8793.0944    36.206514   -8829.3009    -21213.13 
  139400    231.81576   -8802.7234    33.858938   -8836.5824    -13534.31 
  139600    345.72434    -8786.525    50.496391   -8837.0213    30645.921 
  139800    317.29058   -8790.4068    46.343364   -8836.7502     19405.26 
  140000    232.03825   -8805.3802    33.891436   -8839.2717    3164.4864 
  140200    293.06391   -8801.4598    42.804825   -8844.2646    1280.5541 
  140400      328.501   -8786.3081    47.980755   -8834.2889    -16320.86 
  140600    308.01706   -8794.0777    44.988877   -8839.0666   -5037.5497 
  140800    244.59314   -8798.6381      35.7252   -8834.3633   -22944.032 
  141000    305.35583   -8788.4015    44.600178   -8833.0017   -2628.8238 
  141200    303.46818   -8792.0262     44.32447   -8836.3507    22608.693 
  141400    264.40586   -8803.9858    38.619039   -8842.6048   -15267.469 
  141600    258.20886   -8787.1698    37.713907   -8824.8837   -39108.718 
  141800    308.23481    -8786.637    45.020682   -8831.6577    7938.0221 
  142000    249.26836   -8803.0757    36.408059   -8839.4837    9482.3055 
  142200    265.52525   -8797.7627    38.782537   -8836.5453   -26682.198 
  142400    271.61739   -8784.2111    39.672353   -8823.8835    10948.714 
  142600     282.1263   -8798.9655     41.20728   -8840.1728   -21661.552 
  142800    273.53403   -8800.3584    39.952296   -8840.3107   -1726.9341 
  143000    312.39015   -8788.0086    45.627609   -8833.6362    22749.016 
  143200      265.589   -8802.7025    38.791847   -8841.4944     1431.603 
  143400    300.31951   -8797.4769    43.864575   -8841.3415   -9045.0235 
  143600    309.74077   -8786.1519    45.240642   -8831.3925    13611.988 
  143800    257.31261   -8801.5357    37.583001   -8839.1187    13876.157 
  144000    276.24464   -8798.0126    40.348207   -8838.3608   -5854.3359 
  144200    277.12459   -8794.5611    40.476733   -8835.0379    13176.345 
  144400    351.81086   -8782.6249    51.385386   -8834.0103   -13058.159 
  144600    271.83883   -8799.3434    39.704697   -8839.0481   -11978.192 
  144800    293.26706   -8793.0235    42.834496    -8835.858    12678.909 
  145000    312.20625   -8787.7406    45.600748   -8833.3414   -23292.728 
  145200    318.42946   -8788.0799    46.509709   -8834.5897   -18550.445 
  145400     297.5116   -8798.9537    43.454453   -8842.4082    2178.7217 
  145600    278.05573   -8794.0273    40.612734     -8834.64    -39884.93 
  145800    367.89132   -8786.3425    53.734093   -8840.0766    -8748.826 
  146000    279.83431   -8808.1228    40.872514   -8848.9953   -496.58521 
  146200      295.222   -8794.6291    43.120035   -8837.7491   -13962.432 
  146400    295.85165   -8787.6612    43.212001   -8830.8732   -18268.262 
  146600    294.16018   -8803.2067    42.964946   -8846.1717    818.67491 
  146800    284.05338   -8798.9554    41.488749   -8840.4442    14391.979 
  147000     335.7235   -8790.3703    49.035672   -8839.4059     11296.82 
  147200    255.28267   -8798.0198    37.286509   -8835.3063   -13715.347 
  147400    267.03883   -8802.9674     39.00361    -8841.971    1041.9837 
  147600    309.01535   -8786.6972    45.134687   -8831.8318   -35569.139 
  147800    297.81038   -8793.6923    43.498092   -8837.1904   -11613.073 
  148000    253.82036   -8805.5983    37.072923   -8842.6712   -7991.3326 
  148200    276.17379   -8794.8058    40.337858   -8835.1436   -5987.5935 
  148400     304.3016   -8784.5834    44.446197   -8829.0296   -597.56937 
  148600    258.04979   -8799.3199    37.690673   -8837.0106   -50052.474 
  148800    262.57828   -8800.4215    38.352103   -8838.7736    39080.893 
  149000    332.79348   -8784.8113    48.607714    -8833.419    -10065.75 
  149200    278.82334    -8796.227    40.724851   -8836.9519    4819.6945 
  149400    356.97851   -8786.1188    52.140171   -8838.2589    21900.018 
  149600    290.88252   -8783.1984    42.486211   -8825.6846   -4629.3158 
  149800    291.93508    -8797.755    42.639947   -8840.3949   -1949.9066 
  150000    327.84674   -8790.7204    47.885194   -8838.6056   -36478.054 
  150200    358.55704   -8771.6699    52.370731   -8824.0406     40263.87 
  150400    318.37158   -8786.8943    46.501255   -8833.3956   -9077.7919 
  150600    303.37888   -8793.4651    44.311425   -8837.7765   -2351.2653 
  150800    317.94405   -8783.3361     46.43881   -8829.7749    16772.479 
  151000    335.71808   -8791.9282     49.03488   -8840.9631    18613.384 
  151200     256.6688   -8797.8507    37.488966   -8835.3397   -11819.994 
  151400    321.92423   -8784.9011    47.020153   -8831.9213    21169.556 
  151600    368.84609   -8781.7879    53.873546   -8835.6615    -30221.83 
  151800    254.10419   -8798.4829    37.114379   -8835.5973    3201.5981 
  152000    354.09734   -8782.5198    51.719349   -8834.2392    36878.882 
  152200    297.58701   -8793.7852    43.465467   -8837.2506    5852.3305 
  152400    322.62037   -8792.9941    47.121833   -8840.1159    16805.824 
  152600    304.31731   -8788.0708    44.448493   -8832.5193    -6663.954 
  152800    266.28746     -8794.77    38.893865   -8833.6639    4322.0399 
  153000    300.60163   -8795.2569    43.905782   -8839.1627   -14101.284 
  153200    266.81474   -8781.9874    38.970878   -8820.9582   -8006.2996 
  153400     278.9939   -8796.9001    40.749764   -8837.6499    27677.365 
  153600    315.23577    -8795.609     46.04324   -8841.6523   -11496.052 
  153800    365.63495   -8780.1754    53.404529     -8833.58   -3916.8761 
  154000    307.68226   -8788.5096    44.939977   -8833.4496    8876.8706 
  154200    248.89992   -8800.2592    36.354245   -8836.6134    15252.781 
  154400    210.63306   -8813.7193       30.765   -8844.4843    33367.975 
  154600    261.64659   -8796.5141     38.21602   -8834.7301    26762.478 
  154800    309.17095   -8789.8734    45.157414   -8835.0308   -9853.8258 
  155000    253.57518   -8797.3294    37.037113   -8834.3666   -2353.4323 
  155200    244.02479   -8796.6079    35.642186   -8832.2501    15360.698 
  155400    317.22688   -8783.9915    46.334061   -8830.3255   -7237.1045 
  155600    265.33967   -8799.3715    38.755431   -8838.1269    -23646.15 
  155800     240.9167   -8813.7268    35.188219    -8848.915    35027.653 
  156000    287.82318   -8799.8944    42.039366   -8841.9338    20765.647 
  156200    312.48995   -8784.6224    45.642186   -8830.2645    10341.689 
  156400    349.63828   -8791.6496    51.068059   -8842.7177   -17594.414 
  156600    242.19773   -8802.4292    35.375326   -8837.8045   -10136.515 
  156800    329.75665   -8787.5038    48.164156    -8835.668      32014.3 
  157000    337.21489   -8792.2587    49.253503   -8841.5122   -20334.104 
  157200    278.54133   -8800.5711    40.683661   -8841.2548   -10135.315 
  157400    329.14004   -8790.6808    48.074093   -8838.7549    19169.987 
  157600    315.04911   -8791.5264    46.015977   -8837.5424   -42844.708 
  157800    265.89766   -8803.7817     38.83693   -8842.6186    7396.0136 
  158000    375.89328   -8788.6985    54.902857   -8843.6013   -25357.816 
  158200    287.87883    -8795.863    42.047493   -8837.9105    13834.834 
  158400    296.17098   -8792.7207    43.258642   -8835.9794    22902.727 
  158600    318.96877   -8783.8206    46.588481   -8830.4091   -24182.024 
  158800    271.67186   -8798.5232    39.680308   -8838.2035   -29729.449 
  159000    298.86329   -8793.3282     43.65188     -8836.98   -5118.7937 
  159200    311.13109   -8787.7792    45.443711   -8833.2229   -39931.138 
  159400    270.97144   -8799.7347    39.578004   -8839.3127   -15645.342 
  159600    307.10409   -8779.0629    44.855529   -8823.9184    2923.2333 
  159800    256.28965    -8794.324    37.433588   -8831.7576   -25692.671 
  160000    240.15577    -8790.441    35.077078    -8825.518   -3974.6521 
  160200    325.13125   -8788.2345     47.48857   -8835.7231    44199.885 
  160400    356.83791   -8797.0246    52.119636   -8849.1443   -18393.162 
  160600     268.0744   -8800.4958    39.154864   -8839.6507   -18205.599 
  160800    296.37874   -8788.0633    43.288987   -8831.3522    18554.911 
  161000    289.32783   -8796.8333    42.259134   -8839.0924   -15094.953 
  161200    306.65688   -8797.6519    44.790209   -8842.4421    -36884.54 
  161400    316.64796    -8784.381    46.249503   -8830.6305    39664.083 
  161600    295.39998   -8796.1752     43.14603   -8839.3212    -11671.72 
  161800    254.01394   -8809.6319    37.101198   -8846.7331   -5726.9675 
  162000    304.46427   -8793.9355    44.469957   -8838.4055    31474.804 
  162200    335.08417   -8784.2129     48.94229   -8833.1552   -12805.489 
  162400    330.51037   -8793.6099    48.274242   -8841.8842    17674.004 
  162600    254.97201   -8800.6105    37.241134   -8837.8517   -21124.705 
  162800    355.49796   -8785.2811    51.923922    -8837.205    1006.4505 
  163000     310.7632   -8793.6294    45.389977   -8839.0194    -27622.11 
  163200    265.27109   -8803.7338    38.745414   -8842.4792     8438.144 
  163400    331.03978   -8789.6457    48.351569   -8837.9973   -1525.0183 
  163600    331.33764   -8793.5929    48.395074    -8841.988   -9742.6601 
  163800    277.66574   -8802.7335    40.555772   -8843.2893   -42996.605 
  164000    308.50265   -8790.9498    45.059803   -8836.0096   -25518.994 
  164200    332.88084   -8791.3455    48.620474   -8839.9659    2712.3031 
  164400    281.43774   -8802.2229     41.10671   -8843.3297    39746.114 
  164600    349.43333   -8787.2623    51.038125   -8838.3004    24184.575 
  164800    268.70524   -8790.4529    39.247005   -8829.6999   -18907.373 
  165000    286.01541   -8789.0815    41.775323   -8830.8568    7656.9829 
  165200    340.37848   -8791.6649    49.715577   -8841.3805    5403.3695 
  165400    279.45909   -8794.6806    40.817709   -8835.4983    25023.418 
  165600    371.28779   -8778.6119    54.230181   -8832.8421    5171.2489 
  165800    321.83791    -8795.037    47.007546   -8842.0446   -22763.617 
  166000    291.12401   -8792.0073    42.521484   -8834.5288   -14773.186 
  166200    337.78125   -8777.1712    49.336226   -8826.5074   -10648.614 
  166400     293.9714   -8792.3041    42.937372   -8835.2415   -9744.0001 
  166600    307.32576   -8796.7661    44.887906    -8841.654   -16287.397 
  166800    355.27233   -8778.2607    51.890967   -8830.1517   -31920.174 
  167000    269.07258   -8793.8253    39.300659    -8833.126    9138.1592 
  167200     297.1893   -8793.5355    43.407377   -8836.9428   -13627.912 
  167400    353.18628   -8776.2398    51.586279   -8827.8261    -5193.329 
  167600    329.08043   -8784.3928    48.065387   -8832.4582    7229.9019 
  167800    289.56718   -8796.3749    42.294093    -8838.669   -16598.484 
  168000    267.90037   -8798.6069    39.129445   -8837.7363   -568.21312 
  168200    357.82421   -8780.2417    52.263693   -8832.5054   -13305.705 
  168400    270.26558    -8798.231    39.474908   -8837.7059   -18295.563 
  168600      314.101   -8795.8844    45.877496   -8841.7619    36942.883 
  168800     340.1285   -8782.8111    49.679064   -8832.4901    14194.783 
  169000    333.44984   -8773.6914    48.703581    -8822.395    -13182.59 
  169200    260.12632   -8795.0331     37.99397   -8833.0271   -47156.871 
  169400    279.09605   -8789.3325    40.764684   -8830.0971   -6784.5016 
  169600     311.4215   -8784.1795    45.486128   -8829.6656    -6856.024 
  169800    294.34211    -8800.898    42.991518   -8843.8895   -12174.702 
  170000    291.10587   -8788.1202    42.518834   -8830.6391     10982.63 
  170200    271.08164   -8791.5533    39.594101   -8831.1474    25363.755 
  170400    290.73846   -8795.8079    42.465169    -8838.273    645.19194 
  170600    270.68501   -8799.2592    39.536169   -8838.7954      1008.45 
  170800    348.31689   -8784.3444    50.875058   -8835.2194   -18015.373 
  171000    260.25967   -8801.1475    38.013447    -8839.161    11942.436 
  171200    276.68748    -8799.281    40.412889   -8839.6939    25487.317 
  171400    271.78679   -8789.7809    39.697095    -8829.478   -10236.615 
  171600    359.51403    -8774.091    52.510508   -8826.6015    21830.053 
  171800    302.88219   -8793.4371    44.238879    -8837.676    15836.185 
  172000    313.68697   -8795.6072    45.817023   -8841.4242   -9200.3152 
  172200    309.15952   -8777.5247    45.155745   -8822.6804   -15626.025 
  172400    278.99347   -8790.4079      40.7497   -8831.1576   -17763.866 
  172600    315.17672   -8793.0546    46.034614   -8839.0892   -10971.937 
  172800    325.51961   -8779.7344    47.545294   -8827.2797    14020.163 
  173000    297.87172   -8790.0481    43.507052   -8833.5551   -8414.4267 
  173200    307.57276   -8792.8456    44.923982   -8837.7696   -12641.761 
  173400    321.37927   -8782.2172    46.940557   -8829.1578   -12486.852 
  173600    315.38644   -8786.7548    46.065246   -8832.8201   -27694.038 
  173800    277.34895   -8794.8773    40.509503   -8835.3868   -41603.441 
  174000    316.73025    -8788.617    46.261523   -8834.8785   -776.11138 
  174200    381.27461   -8781.2772    55.688852   -8836.9661    18535.425 
  174400    297.91528   -8796.2032    43.513414   -8839.7166    11795.446 
  174600    293.84372   -8791.4617    42.918723   -8834.3804    56005.318 
  174800    378.25307   -8776.1289    55.247527   -8831.3765   -12291.656 
  175000    342.16073    -8794.187    49.975891   -8844.1629   -13559.127 
  175200    275.45707   -8797.3929    40.233175    -8837.626   -16777.923 
  175400    326.13826    -8778.415    47.635653   -8826.0507    63330.829 
  175600    301.72331   -8785.2783    44.069613   -8829.3479    -14465.47 
  175800    291.57341   -8794.2315    42.587122   -8836.8186   -13554.852 
  176000    253.82903   -8800.2342     37.07419   -8837.3084   -6205.5021 
  176200    305.29273   -8785.9681    44.590962    -8830.559    33306.516 
  176400    282.47061   -8792.8957    41.257571   -8834.1532    25881.868 
  176600    291.14914    -8801.911    42.525154   -8844.4361    -21364.54 
  176800    250.40483   -8794.3516    36.574052   -8830.9256   -9726.3766 
  177000    278.46002   -8784.9084    40.671785   -8825.5802    22305.716 
  177200     304.5289   -8774.8262    44.479397   -8819.3056    20126.451 
  177400    310.66527    -8789.508    45.375673   -8834.8836   -16765.076 
  177600    257.67766   -8792.1554     37.63632   -8829.7917   -24655.994 
  177800    355.73435   -8779.1467    51.958449   -8831.1052    23834.792 
  178000    276.13612    -8797.875    40.332357   -8838.2074   -19481.185 
  178200    297.79631   -8793.8463    43.496037   -8837.3424    9126.7586 
  178400    348.73963   -8779.0874    50.936803   -8830.0242   -13412.518 
  178600    265.36408    -8790.837    38.758996    -8829.596    34134.945 
  178800    313.00472   -8788.5817    45.717373   -8834.2991   -34517.856 
  179000    343.21472   -8776.0032    50.129837    -8826.133   -20774.898 
  179200    286.00056   -8795.7839    41.773154    -8837.557   -38971.553 
  179400    298.72559    -8791.627    43.631767   -8835.2588   -42622.355 
[...]
  950000    336.61478   -8788.8354    49.165851   -8838.0013   -11070.629 
  950200     288.5757   -8801.8418    42.149278    -8843.991     27768.82 
  950400    271.03457   -8795.6564    39.587226   -8835.2436   -24528.688 
  950600    305.88803   -8794.0676    44.677911   -8838.7455    35740.612 
  950800    357.83247   -8775.6885    52.264901   -8827.9534    -48044.32 
  951000    284.52939   -8791.4917    41.558275     -8833.05    19396.812 
  951200    328.14284    -8793.864    47.928442   -8841.7925    9819.5916 
  951400    273.00928   -8800.2868    39.875652   -8840.1625   -11077.466 
  951600    290.20695   -8798.8174    42.387538   -8841.2049    14541.499 
  951800    309.71429   -8790.8288    45.236774   -8836.0656   -9283.3527 
  952000    338.49265     -8796.65    49.440132   -8846.0901   -9301.4486 
  952200    321.20102   -8788.1844    46.914522    -8835.099    4691.3814 
  952400    309.15354   -8788.9261    45.154871    -8834.081    5715.7364 
  952600    286.88929   -8798.8554    41.902961   -8840.7584   -1080.1242 
  952800    354.58831   -8781.2949    51.791059    -8833.086   -4074.4962 
  953000    335.49805   -8796.8312    49.002743    -8845.834    19739.354 
  953200    306.81782    -8798.887    44.813717   -8843.7007    5155.7941 
  953400     336.9851   -8781.0237     49.21994   -8830.2436    37588.602 
  953600     234.3231   -8802.1798     34.22516    -8836.405   -9373.9255 
  953800     273.7555   -8792.6699    39.984644   -8832.6545    34229.194 
  954000    365.57634   -8789.6865    53.395968   -8843.0825   -29557.878 
  954200    288.64798   -8796.4939    42.159835   -8838.6538   -12795.668 
  954400    282.00558   -8798.2085    41.189648   -8839.3981    6094.6674 
  954600    294.40605    -8798.647    43.000857   -8841.6478   -1284.3123 
  954800    386.09343   -8779.8113    56.392688    -8836.204    3069.3934 
  955000    310.32641   -8797.1648     45.32618    -8842.491   -9686.6901 
  955200    299.19398   -8790.8068     43.70018    -8834.507   -11975.915 
  955400     344.1412   -8781.9679    50.265157   -8832.2331    13303.156 
  955600    256.40604   -8795.0292    37.450587   -8832.4798    9711.3371 
  955800    306.81522   -8798.3281    44.813336   -8843.1414   -26103.192 
  956000     341.7455   -8779.9055    49.915242   -8829.8208   -23865.672 
  956200    259.35587   -8803.0276    37.881439    -8840.909   -6963.7218 
  956400    270.67192   -8793.7009    39.534257   -8833.2352   -26169.506 
  956600    325.97016   -8781.8933    47.611102   -8829.5044   -3257.5955 
  956800    347.89442   -8799.1795    50.813352   -8849.9929   -18170.607 
  957000    276.70774   -8795.8013    40.415847   -8836.2171   -52695.583 
  957200    317.81824   -8788.0944    46.420434   -8834.5148     11927.81 
  957400    241.02027   -8805.9062    35.203347   -8841.1096   -16569.657 
  957600    307.56448    -8789.513    44.922773   -8834.4358   -4274.4035 
  957800    273.99212   -8785.3923    40.019205   -8825.4115    6072.8409 
  958000    344.44055   -8786.7338    50.308881   -8837.0427   -16051.702 
  958200    255.27152   -8800.2161     37.28488    -8837.501    11282.333 
  958400    341.97352   -8783.6434    49.948547   -8833.5919   -13393.826 
  958600    378.60598   -8787.5511    55.299073   -8842.8501   -8111.2296 
  958800    342.05539   -8795.2204    49.960504   -8845.1809    28509.869 
  959000    256.48628   -8803.6291    37.462307   -8841.0915   -20005.276 
  959200    326.46078   -8786.2155     47.68276   -8833.8982   -13860.994 
  959400    314.09766   -8788.0689    45.877008   -8833.9459   -8744.2979 
  959600    235.82756   -8802.2749    34.444901   -8836.7198    25603.769 
  959800    344.46973    -8789.174    50.313142   -8839.4871    10448.121 
  960000    326.43671   -8793.0704    47.679246   -8840.7496   -7441.7045 
  960200    278.88948   -8805.9533    40.734512   -8846.6878    7961.9345 
  960400    349.33598   -8788.3639    51.023905   -8839.3879    23067.498 
  960600    293.54007   -8791.2878    42.874373   -8834.1621   -23466.332 
  960800    277.47361   -8798.0867    40.527711   -8838.6144    4868.0735 
  961000    336.48337   -8788.6919    49.146658   -8837.8386   -13970.799 
  961200    290.62306    -8787.922    42.448315   -8830.3704    34574.486 
  961400    270.03916   -8808.0483    39.441837   -8847.4901   -16359.961 
  961600    239.28465   -8796.8988    34.949843   -8831.8486    5974.7982 
  961800    352.57081   -8787.3289    51.496385   -8838.8253    1846.5943 
  962000     319.9783   -8797.1382    46.735932   -8843.8741   -26109.401 
  962200    264.87934   -8803.1559    38.688195   -8841.8441    22176.435 
  962400    296.96036   -8786.2189    43.373938   -8829.5928    31346.239 
  962600    304.36355   -8792.3545    44.455247   -8836.8098    6505.4357 
  962800    281.12707   -8803.6026    41.061334    -8844.664    35054.464 
  963000    298.19928   -8795.1342    43.554895   -8838.6891   -22144.521 
  963200    275.96441   -8786.9901    40.307277   -8827.2974   -39311.669 
  963400    304.78729    -8797.228    44.517138   -8841.7452    -33525.31 
  963600    322.31443   -8793.9234    47.077146   -8841.0005    22520.168 
  963800    315.49467   -8787.9257    46.081055   -8834.0068     20455.07 
  964000    247.30513    -8807.692    36.121311   -8843.8133     39837.53 
  964200    242.88714   -8798.1248    35.476021   -8833.6008    10050.544 
  964400    323.74136    -8790.721    47.285564   -8838.0066    384.32064 
  964600     261.3152   -8807.6481    38.167617   -8845.8157   -16339.814 
  964800    246.05884   -8813.8089    35.939279   -8849.7482   -13982.993 
  965000     299.8289   -8795.0784    43.792917   -8838.8713    4064.7208 
  965200    338.72556   -8782.8342     49.47415   -8832.3083    5040.5569 
  965400    297.82939   -8799.7533    43.500869   -8843.2542    19403.946 
  965600    312.29997   -8796.7877    45.614437   -8842.4021    47783.556 
  965800    361.09445   -8777.4162    52.741345   -8830.1575    7324.6965 
  966000    304.08632   -8789.7582    44.414755   -8834.1729     10026.61 
  966200    251.12207   -8798.3396    36.678812   -8835.0184   -2811.9607 
  966400    331.10542   -8779.6126    48.361156   -8827.9738     1188.411 
  966600    334.12855   -8789.0603    48.802714    -8837.863    3103.8848 
  966800    272.62878   -8798.1026    39.820076   -8837.9227    23326.324 
  967000    328.82926   -8791.7346    48.028701   -8839.7633    9462.5606 
  967200    331.92406   -8793.8535    48.480726   -8842.3342    5827.7756 
  967400    257.99623   -8808.7731     37.68285   -8846.4559   -2440.3203 
  967600    319.68658   -8791.6317    46.693323   -8838.3251   -4780.4676 
  967800    291.63912   -8789.7769     42.59672   -8832.3736   -10818.303 
  968000    303.94782   -8801.0199    44.394525   -8845.4144     11786.83 
  968200     308.4755    -8793.389    45.055836   -8838.4448   -576.94699 
  968400    281.00056   -8789.4391    41.042856   -8830.4819    14864.291 
  968600    282.28173   -8799.0958    41.229982   -8840.3258    6262.4727 
  968800    329.37805   -8785.5018    48.108856   -8833.6106   -32588.622 
  969000    306.56432   -8793.4954     44.77669   -8838.2721    26302.935 
  969200    223.40483   -8800.4068    32.630441   -8833.0372    17179.942 
  969400    370.42681   -8780.6193    54.104426   -8834.7237    688.00863 
  969600    298.55468   -8791.9509    43.606805   -8835.5577    11999.345 
  969800    290.88175   -8796.2251    42.486099   -8838.7112   -12565.623 
  970000    249.47099   -8807.9873    36.437657    -8844.425    8112.1586 
  970200    311.25239   -8792.7467    45.461429   -8838.2082    26855.423 
  970400    318.22512   -8792.3881    46.479863    -8838.868   -31919.126 
  970600    202.34651   -8807.1061    29.554669   -8836.6608   -60497.921 
  970800    281.82768   -8791.9604    41.163665   -8833.1241   -4153.0087 
  971000    342.85123    -8791.764    50.076746   -8841.8408   -39557.718 
  971200    258.95434   -8806.2678    37.822791   -8844.0906   -18459.794 
  971400    389.51876    -8787.477    56.892991     -8844.37   -2202.6466 
  971600    338.86257   -8791.9662    49.494163   -8841.4603   -12163.361 
  971800    237.55981   -8802.3055    34.697913   -8837.0035    20286.685 
  972000     310.1763   -8792.9367    45.304254   -8838.2409    13412.945 
  972200    281.69677   -8797.4369    41.144543   -8838.5814   -14339.607 
  972400    251.07113   -8807.5334    36.671372   -8844.2047   -22775.573 
  972600    279.47704   -8790.4808     40.82033   -8831.3011   -5453.5153 
  972800    284.40234   -8794.4472    41.539718   -8835.9869   -12663.299 
  973000    265.95392   -8809.1748    38.845147     -8848.02    6993.5986 
  973200    326.60961     -8793.18      47.7045   -8840.8845   -5505.0799 
  973400     312.0644   -8795.1304     45.58003   -8840.7104    33864.596 
  973600     307.4472   -8795.9676    44.905643   -8840.8732   -10558.713 
  973800    278.29824   -8796.4121    40.648156   -8837.0603    11572.309 
  974000    318.75777   -8783.2403    46.557662    -8829.798     33925.87 
  974200    265.84733    -8802.795     38.82958   -8841.6245    6002.4953 
  974400    301.78612   -8796.3018    44.078788   -8840.3806    39018.986 
  974600    359.29336   -8784.5989    52.478277   -8837.0772    5528.7789 
  974800    275.82924   -8800.3532    40.287533   -8840.6407    12865.753 
  975000    298.88484     -8797.99    43.655028   -8841.6451     12569.57 
  975200    339.56355   -8783.8554    49.596548   -8833.4519    543.96113 
  975400     253.6422   -8796.5749    37.046902   -8833.6218    4175.5649 
  975600    284.03553   -8799.4259    41.486142    -8840.912   -31271.602 
  975800    381.32439   -8783.0656    55.696124   -8838.7617    19160.247 
  976000    307.39893   -8797.8622    44.898593   -8842.7608   -10514.389 
  976200    315.11755   -8790.8756    46.025973   -8836.9015    -1039.823 
  976400    340.77146   -8779.2504    49.772974   -8829.0234    3384.2729 
  976600    290.18715   -8791.1732    42.384646   -8833.5579   -4906.5202 
  976800    273.40971   -8799.2398    39.934138    -8839.174   -5751.9567 
  977000    377.77351   -8784.5656    55.177483   -8839.7431     16395.41 
  977200    261.39891   -8800.8301    38.179845   -8839.0099    19302.395 
  977400    312.19934   -8795.9583    45.599739    -8841.558    3316.3579 
  977600    308.93875   -8786.5309    45.123498   -8831.6544    16385.004 
  977800    302.58068   -8793.0551    44.194841   -8837.2499   -5146.4796 
  978000    299.72244   -8794.6381    43.777367   -8838.4155   -27047.725 
  978200    352.94082   -8779.5719    51.550427   -8831.1224   -18908.143 
  978400    265.29276    -8794.946     38.74858   -8833.6946   -4408.6136 
  978600    297.00796   -8793.2074    43.380891   -8836.5883   -9153.4501 
  978800    361.54933   -8774.4351    52.807784   -8827.2429    30656.411 
  979000    336.92259    -8786.813    49.210809   -8836.0238    7195.6097 
  979200    271.12287   -8795.4194    39.600123   -8835.0196   -15370.485 
  979400    382.01495   -8783.2241    55.796986   -8839.0211    1618.2594 
  979600    289.14989   -8787.6488    42.233144   -8829.8819   -13012.292 
  979800    302.57177   -8796.5467    44.193539   -8840.7402    21839.078 
  980000    354.97226   -8788.0319    51.847139   -8839.8791   -14862.034 
  980200     289.4166   -8784.1789      42.2721    -8826.451    2747.6087 
  980400    266.84607   -8799.2825    38.975455    -8838.258   -15133.511 
  980600    312.59469   -8783.9961    45.657484   -8829.6536    44152.741 
  980800    305.74664   -8786.3599     44.65726   -8831.0172    21704.752 
  981000    298.17718   -8792.3606    43.551667   -8835.9123    11772.245 
  981200    316.52501   -8792.0878    46.231545   -8838.3193     25864.37 
  981400    258.69528     -8795.35    37.784953    -8833.135   -2961.5587 
  981600    272.44836   -8802.5197    39.793724   -8842.3134    3555.4975 
  981800    304.33434   -8785.7042     44.45098   -8830.1552    4928.3816 
  982000    311.26089    -8784.638     45.46267   -8830.1007    28007.201 
  982200    271.04513   -8803.5114    39.588769   -8843.1002   -8401.4308 
  982400    270.61168    -8789.542    39.525459   -8829.0675   -12909.336 
  982600    322.61226   -8787.4155    47.120648   -8834.5362      17550.3 
  982800    266.12711   -8803.6829    38.870445   -8842.5534     8367.076 
  983000    299.33464   -8793.1398    43.720726   -8836.8605   -385.85074 
  983200    342.75618    -8775.198    50.062863   -8825.2609   -2757.1955 
  983400    322.46303   -8784.4639    47.098851   -8831.5627     25046.49 
  983600    260.93722   -8797.5738     38.11241   -8835.6862   -29047.147 
  983800    275.46222   -8798.2436    40.233927   -8838.4775    -13826.39 
  984000    337.94435   -8785.9152    49.360047   -8835.2753   -14920.497 
  984200    304.22802   -8797.4999    44.435451   -8841.9354    31824.151 
  984400    216.25796   -8810.4531     31.58657   -8842.0396     5815.481 
  984600    255.68091   -8796.9986    37.344675   -8834.3433    19317.612 
  984800     325.7951   -8790.6871    47.585532   -8838.2726   -15973.492 
  985000     226.7024   -8805.8537    33.112083   -8838.9658   -7806.4922 
  985200    273.83097   -8789.5519    39.995667   -8829.5476    16021.044 
  985400    251.98455   -8785.9683    36.804785   -8822.7731   -46556.868 
  985600    265.38985    -8801.516     38.76276   -8840.2788    12944.961 
  985800    286.15191   -8795.0021    41.795259   -8836.7974   -6601.0834 
  986000    291.84815   -8790.8133    42.627251   -8833.4405   -15795.891 
  986200    304.02602   -8795.2926    44.405947   -8839.6985    1217.1974 
  986400    249.16242   -8808.0432    36.392586   -8844.4358    12681.619 
  986600    310.17035    -8788.551    45.303386   -8833.8544   -10801.077 
  986800    352.31725   -8782.4434    51.459349   -8833.9028    13237.957 
  987000    269.81578   -8800.6306     39.40921   -8840.0398    7342.3202 
  987200    268.19987    -8793.894     39.17319   -8833.0671    23970.937 
  987400     381.2409   -8776.0499    55.683928   -8831.7338   -5923.8541 
  987600    298.26846   -8795.1262       43.565   -8838.6912   -14056.847 
  987800    319.90482   -8791.2181      46.7252   -8837.9433   -12304.942 
  988000    355.97386   -8779.3141    51.993432   -8831.3075   -12759.637 
  988200    316.92763   -8795.6757    46.290352    -8841.966   -120.22259 
  988400    319.44711   -8794.5419    46.658347   -8841.2003    -24179.09 
  988600    355.44746   -8779.7327    51.916546   -8831.6493    10843.387 
  988800    311.18715   -8794.6139      45.4519   -8840.0658    9237.8125 
  989000    310.93846   -8794.2956    45.415576   -8839.7111   -9071.1808 
  989200    366.73624   -8777.2823    53.565382   -8830.8477     22698.57 
  989400    292.25444   -8787.4604    42.686594    -8830.147    16778.586 
  989600    352.70837   -8793.2708    51.516476   -8844.7873   -14366.855 
  989800    283.83121   -8804.3974    41.456299   -8845.8537   -27197.117 
  990000    363.51113   -8785.6065    53.094323   -8838.7008    10704.921 
  990200    305.62758   -8798.1407    44.639871   -8842.7806   -1987.2708 
  990400    318.95358   -8794.6974    46.586261   -8841.2837     29367.56 
  990600    360.12648   -8781.4428    52.599963   -8834.0428    5110.0825 
  990800    285.87635   -8797.4477    41.755012   -8839.2028    34244.114 
  991000    243.05179    -8797.683     35.50007   -8833.1831   -2884.7237 
  991200    325.54445   -8787.9526    47.548923   -8835.5015   -29899.628 
  991400    276.40036   -8798.8363    40.370951   -8839.2072   -2831.5672 
  991600    229.84443   -8803.9701    33.571006   -8837.5411    8076.1588 
  991800     266.6882   -8790.0612    38.952397   -8829.0136     8089.086 
  992000    342.83262   -8793.6422    50.074027   -8843.7162   -9094.1913 
  992200    267.57968   -8798.2918    39.082605   -8837.3745   -9205.3021 
  992400    330.50855   -8785.2254    48.273978   -8833.4994    26250.014 
  992600    300.64483   -8801.9304    43.912092   -8845.8425   -6202.8722 
  992800    318.47313   -8790.2448    46.516088   -8836.7609    -7727.936 
  993000    298.30212   -8791.1398    43.569916   -8834.7097   -24649.192 
  993200    301.75266   -8795.5038    44.073901   -8839.5777   -24322.025 
  993400    327.78038   -8781.6387    47.875502   -8829.5142    16086.863 
  993600     332.9781   -8791.3472    48.634679   -8839.9819    610.68309 
  993800    271.06322   -8792.6387     39.59141   -8832.2301   -7027.6911 
  994000    248.03691   -8793.2039    36.228195   -8829.4321   -8186.0272 
  994200    234.17501   -8802.6101     34.20353   -8836.8136   -23907.464 
  994400    279.90836   -8785.5715    40.883328   -8826.4548   -37427.604 
  994600    275.56495   -8792.7566    40.248932   -8833.0055     15728.48 
  994800    261.35693   -8792.3732    38.173713   -8830.5469   -11939.374 
  995000    286.11724   -8787.8795    41.790196   -8829.6697    12477.264 
  995200    275.46756   -8791.0016    40.234707   -8831.2363   -48279.644 
  995400    361.94313   -8783.1922    52.865303   -8836.0575   -9477.7923 
  995600    300.75169    -8797.353      43.9277   -8841.2807    11479.884 
  995800    324.16704   -8794.5912    47.347739   -8841.9389    45213.435 
  996000    352.60385   -8774.1952     51.50121   -8825.6964    24604.086 
  996200    295.01194   -8784.9992    43.089354   -8828.0885    27255.333 
  996400    321.16466   -8793.1206    46.909212   -8840.0298    -11624.61 
  996600    335.88824   -8793.1595    49.059733   -8842.2193   -24033.981 
  996800    322.83411   -8779.7008    47.153051   -8826.8538   -5530.5498 
  997000    302.17298   -8795.7954    44.135293   -8839.9306   -2599.3752 
  997200    276.79295   -8795.3411    40.428293   -8835.7694   -16938.811 
  997400    377.27715   -8772.4587    55.104984   -8827.5637   -3484.4021 
  997600    329.97936    -8786.609    48.196684   -8834.8057   -19475.569 
  997800    298.51505   -8795.5849    43.601017   -8839.1859    26020.086 
  998000    325.83951      -8785.5    47.592019   -8833.0921    -18949.19 
  998200    318.12015   -8790.1623    46.464531   -8836.6268   -1094.5714 
  998400    295.28847   -8799.7707    43.129743   -8842.9004   -19070.836 
  998600    291.79926   -8789.8481     42.62011   -8832.4682   -13231.451 
  998800    382.00803   -8776.5528    55.795975   -8832.3488   -10696.822 
  999000    275.96013   -8795.3607    40.306652   -8835.6674    51149.652 
  999200    279.26863   -8790.5051     40.78989    -8831.295    1790.3199 
  999400    290.78935   -8787.8672    42.472603   -8830.3399    50846.029 
  999600    269.40102   -8795.7155     39.34863   -8835.0642    9813.2357 
  999800    300.32377   -8792.3909    43.865198   -8836.2561    13205.479 
 1000000    285.65943   -8789.1397    41.723328    -8830.863   -12102.878 
Loop time of 2336.11 on 8 procs for 1000000 steps with 50 atoms

Performance: 9.246 ns/day, 2.596 hours/ns, 428.061 timesteps/s
99.4% CPU use with 8 MPI tasks x no OpenMP threads

MPI task timing breakdown:
Section |  min time  |  avg time  |  max time  |%varavg| %total
---------------------------------------------------------------
Pair    | 1964.8     | 1985.6     | 2009       |  37.2 | 84.99
Neigh   | 2.6661     | 2.6886     | 2.7235     |   1.1 |  0.12
Comm    | 30.468     | 54.188     | 74.959     | 226.3 |  2.32
Output  | 0.075905   | 0.083947   | 0.1327     |   6.4 |  0.00
Modify  | 291.8      | 291.95     | 292.31     |   0.9 | 12.50
Other   |            | 1.647      |            |       |  0.07

Nlocal:    6.25 ave 8 max 4 min
Histogram: 2 0 0 0 0 3 0 0 0 3
Nghost:    546 ave 557 max 534 min
Histogram: 2 1 0 0 0 1 2 0 0 2
Neighs:    800.125 ave 1017 max 523 min
Histogram: 2 0 0 0 2 1 0 0 0 3

Total # of neighbors = 6401
Ave neighs/atom = 128.02
Neighbor list builds = 4108
Dangerous builds = 0

Please see the log.cite file for references relevant to this simulation

Total wall time: 0:39:04
