ITEM: TIMESTEP
0
ITEM: NUMBER OF ATOMS
58
ITEM: BOX BOUNDS pp pp pp
0.0000000000000000e+00 3.2808000000000000e+01
0.0000000000000000e+00 1.7780000000000001e+01
0.0000000000000000e+00 2.4729999999999999e+00
ITEM: ATOMS id type x y z 
13 1 7.043 0.849 2.464 
29 1 7.397 1.432 1.228 
37 1 8.035 2.733 1.228 
1 1 6.173 17.398 2.464 
5 1 5.371 17.398 1.228 
9 1 3.973 17.398 1.228 
16 1 7.043 16.167 2.464 
32 1 7.397 15.584 1.228 
40 1 8.035 14.283 1.228 
45 1 3.236 17.398 2.464 
49 1 1.81 17.398 2.464 
53 1 1.083 17.398 1.228 
4 1 10.968 8.508 2.464 
8 1 11.771 8.508 1.228 
12 1 13.168 8.508 1.228 
18 1 10.098 7.277 2.464 
21 1 8.308 3.392 2.464 
26 1 8.833 4.734 2.464 
34 1 9.745 6.694 1.228 
42 1 9.106 5.393 1.228 
48 1 13.906 8.508 2.464 
52 1 15.331 8.508 2.464 
56 1 16.058 8.508 1.228 
57 2 8.747 1.332 1.228 
58 3 9.723 1.332 1.228 
19 1 10.098 9.739 2.464 
24 1 8.308 13.624 2.464 
27 1 8.833 12.282 2.464 
35 1 9.745 10.322 1.228 
43 1 9.106 11.623 1.228 
3 1 22.577 8.508 2.464 
7 1 21.775 8.508 1.228 
11 1 20.377 8.508 1.228 
20 1 23.447 7.277 2.464 
36 1 23.801 6.694 1.228 
44 1 24.439 5.393 1.228 
47 1 19.64 8.508 2.464 
51 1 18.214 8.508 2.464 
55 1 17.487 8.508 1.228 
17 1 23.447 9.739 2.464 
33 1 23.801 10.322 1.228 
41 1 24.439 11.623 1.228 
15 1 26.502 0.849 2.464 
23 1 25.237 3.392 2.464 
28 1 24.712 4.734 2.464 
31 1 26.149 1.432 1.228 
39 1 25.511 2.733 1.228 
2 1 27.373 17.398 2.464 
6 1 28.175 17.398 1.228 
10 1 29.572 17.398 1.228 
14 1 26.502 16.167 2.464 
22 1 25.237 13.624 2.464 
25 1 24.712 12.282 2.464 
30 1 26.149 15.584 1.228 
38 1 25.511 14.283 1.228 
46 1 30.31 17.398 2.464 
50 1 31.735 17.398 2.464 
54 1 32.462 17.398 1.228 
ITEM: TIMESTEP
10
ITEM: NUMBER OF ATOMS
58
ITEM: BOX BOUNDS pp pp pp
0.0000000000000000e+00 3.2808000000000000e+01
0.0000000000000000e+00 1.7780000000000001e+01
0.0000000000000000e+00 2.4729999999999999e+00
ITEM: ATOMS id type x y z 
13 1 7.01734 0.87849 2.46431 
29 1 7.46199 1.45375 1.2278 
37 1 7.89587 2.76965 1.22771 
1 1 6.18458 17.4323 2.46425 
5 1 5.34933 17.3842 1.22766 
9 1 3.96425 17.3961 1.22773 
16 1 7.07591 16.1885 2.46428 
32 1 7.43088 15.5731 1.22777 
40 1 8.04379 14.3226 1.22773 
45 1 3.24674 17.3985 2.46428 
49 1 1.80827 17.3981 2.46428 
53 1 1.07068 17.398 1.22772 
4 1 10.979 8.50999 2.46424 
8 1 11.7863 8.50788 1.22768 
12 1 13.1556 8.50804 1.22773 
18 1 10.0613 7.28916 2.46428 
21 1 8.26188 3.35441 2.46426 
26 1 8.83138 4.76106 2.46426 
34 1 9.70325 6.67173 1.22776 
42 1 9.1005 5.43903 1.22772 
48 1 13.9083 8.508 2.46428 
52 1 15.3626 8.508 2.46428 
56 1 16.0667 8.508 1.22772 
57 2 8.8759 1.23639 1.22794 
58 3 9.81137 1.2684 1.22802 
19 1 10.0631 9.72384 2.46428 
24 1 8.30921 13.6443 2.46426 
27 1 8.83072 12.264 2.46426 
35 1 9.70432 10.3413 1.22776 
43 1 9.09329 11.5911 1.22773 
3 1 22.573 8.508 2.46424 
7 1 21.7528 8.508 1.22769 
11 1 20.3721 8.508 1.22773 
20 1 23.484 7.29059 2.46428 
36 1 23.843 6.67269 1.22776 
44 1 24.4503 5.42863 1.22773 
47 1 19.6419 8.508 2.46428 
51 1 18.1947 8.508 2.46428 
55 1 17.4724 8.508 1.22772 
17 1 23.484 9.72541 2.46428 
33 1 23.843 10.3433 1.22776 
41 1 24.4503 11.5874 1.22773 
15 1 26.4632 0.836765 2.46428 
23 1 25.2352 3.37247 2.46426 
28 1 24.7131 4.75496 2.46426 
31 1 26.1064 1.45469 1.22776 
39 1 25.5 2.69666 1.22773 
2 1 27.3672 17.398 2.46424 
6 1 28.2003 17.398 1.22769 
10 1 29.5913 17.398 1.22773 
14 1 26.4632 16.1792 2.46428 
22 1 25.2352 13.6435 2.46426 
25 1 24.7131 12.261 2.46426 
30 1 26.1064 15.5613 1.22776 
38 1 25.5 14.3193 1.22773 
46 1 30.3135 17.398 2.46428 
50 1 31.7521 17.398 2.46428 
54 1 32.4649 17.398 1.22772 
ITEM: TIMESTEP
20
ITEM: NUMBER OF ATOMS
58
ITEM: BOX BOUNDS pp pp pp
0.0000000000000000e+00 3.2808000000000000e+01
0.0000000000000000e+00 1.7780000000000001e+01
0.0000000000000000e+00 2.4729999999999999e+00
ITEM: ATOMS id type x y z 
13 1 7.00264 0.88269 2.46427 
29 1 7.46727 1.4577 1.22781 
37 1 7.8706 2.78602 1.22778 
1 1 6.18746 17.4123 2.46419 
5 1 5.34724 17.3751 1.22776 
9 1 3.95037 17.3948 1.22777 
16 1 7.09433 16.1873 2.46425 
32 1 7.44204 15.5704 1.22778 
40 1 8.04864 14.3277 1.22776 
45 1 3.26081 17.3992 2.46423 
49 1 1.80491 17.3983 2.46424 
53 1 1.05004 17.398 1.22777 
4 1 10.9496 8.50843 2.4642 
8 1 11.7854 8.5073 1.22776 
12 1 13.1714 8.50803 1.22777 
18 1 10.045 7.28284 2.46425 
21 1 8.26538 3.37918 2.46421 
26 1 8.83329 4.76692 2.46423 
34 1 9.69015 6.66678 1.22778 
42 1 9.09069 5.43052 1.22775 
48 1 13.9095 8.50803 2.46423 
52 1 15.3801 8.508 2.46423 
56 1 16.081 8.508 1.22777 
57 2 8.9216 1.23931 1.22794 
58 3 9.8516 1.24459 1.22802 
19 1 10.0454 9.73088 2.46425 
24 1 8.31018 13.6521 2.46423 
27 1 8.82715 12.2628 2.46423 
35 1 9.68947 10.3486 1.22778 
43 1 9.0876 11.586 1.22776 
3 1 22.5967 8.508 2.4642 
7 1 21.7599 8.508 1.22776 
11 1 20.3732 8.508 1.22777 
20 1 23.5007 7.28439 2.46425 
36 1 23.8571 6.66719 1.22778 
44 1 24.4561 5.43456 1.22776 
47 1 19.6466 8.508 2.46423 
51 1 18.1712 8.508 2.46424 
55 1 17.4382 8.508 1.22777 
17 1 23.5007 9.73161 2.46425 
33 1 23.8571 10.3488 1.22778 
41 1 24.4561 11.5814 1.22776 
15 1 26.4489 0.840945 2.46425 
23 1 25.233 3.36724 2.46423 
28 1 24.7159 4.75858 2.46423 
31 1 26.0935 1.45828 1.22778 
39 1 25.4939 2.69185 1.22776 
2 1 27.3526 17.398 2.4642 
6 1 28.1898 17.398 1.22776 
10 1 29.5759 17.398 1.22777 
14 1 26.4489 16.1751 2.46425 
22 1 25.233 13.6488 2.46423 
25 1 24.7159 12.2574 2.46423 
30 1 26.0935 15.5577 1.22778 
38 1 25.4939 14.3241 1.22776 
46 1 30.3107 17.398 2.46423 
50 1 31.7817 17.398 2.46423 
54 1 32.4857 17.398 1.22777 
ITEM: TIMESTEP
30
ITEM: NUMBER OF ATOMS
58
ITEM: BOX BOUNDS pp pp pp
0.0000000000000000e+00 3.2808000000000000e+01
0.0000000000000000e+00 1.7780000000000001e+01
0.0000000000000000e+00 2.4729999999999999e+00
ITEM: ATOMS id type x y z 
13 1 6.99487 0.930108 2.46417 
29 1 7.3431 1.50402 1.22782 
37 1 7.80591 2.79667 1.22788 
1 1 6.17657 17.3734 2.46418 
5 1 5.33932 17.3183 1.22782 
9 1 3.95153 17.3913 1.22778 
16 1 7.14092 16.2076 2.46422 
32 1 7.48089 15.5796 1.22779 
40 1 8.07262 14.3381 1.2278 
45 1 3.24136 17.4056 2.46421 
49 1 1.79121 17.4003 2.46421 
53 1 1.03076 17.3978 1.22778 
4 1 10.9233 8.51209 2.46417 
8 1 11.7764 8.50871 1.22782 
12 1 13.1567 8.50773 1.22778 
18 1 10.0204 7.30245 2.46421 
21 1 8.23879 3.39573 2.46414 
26 1 8.82913 4.74623 2.46421 
34 1 9.65429 6.67425 1.22779 
42 1 9.07085 5.44058 1.22778 
48 1 13.8725 8.50815 2.46421 
52 1 15.3864 8.50803 2.46421 
56 1 16.1284 8.50799 1.22778 
57 2 9.13563 1.22959 1.22795 
58 3 10.011 1.17784 1.22804 
19 1 10.0185 9.71994 2.46421 
24 1 8.32225 13.6611 2.4642 
27 1 8.81372 12.2574 2.4642 
35 1 9.64939 10.3477 1.2278 
43 1 9.05945 11.5798 1.2278 
3 1 22.6082 8.508 2.46417 
7 1 21.76 8.508 1.22782 
11 1 20.3806 8.508 1.22779 
20 1 23.5255 7.29922 2.46421 
36 1 23.8915 6.68064 1.2278 
44 1 24.4848 5.4436 1.2278 
47 1 19.6683 8.508 2.46421 
51 1 18.1581 8.508 2.46421 
55 1 17.4461 8.508 1.22779 
17 1 23.5255 9.71678 2.46421 
33 1 23.8915 10.3354 1.2278 
41 1 24.4848 11.5724 1.2278 
15 1 26.431 0.822034 2.46421 
23 1 25.2193 3.36013 2.4642 
28 1 24.7306 4.76261 2.4642 
31 1 26.0654 1.4341 1.2278 
39 1 25.4655 2.68311 1.2278 
2 1 27.3589 17.398 2.46417 
6 1 28.1812 17.398 1.22781 
10 1 29.5755 17.398 1.22779 
14 1 26.431 16.194 2.46421 
22 1 25.2193 13.6559 2.4642 
25 1 24.7306 12.2534 2.4642 
30 1 26.0654 15.5819 1.2278 
38 1 25.4655 14.3329 1.2278 
46 1 30.2852 17.398 2.46421 
50 1 31.7595 17.398 2.46421 
54 1 32.496 17.3978 1.22779 
ITEM: TIMESTEP
40
ITEM: NUMBER OF ATOMS
58
ITEM: BOX BOUNDS pp pp pp
0.0000000000000000e+00 3.2808000000000000e+01
0.0000000000000000e+00 1.7780000000000001e+01
0.0000000000000000e+00 2.4729999999999999e+00
ITEM: ATOMS id type x y z 
13 1 6.99526 0.894476 2.46427 
29 1 7.30039 1.53347 1.22774 
37 1 7.81158 2.79761 1.22773 
1 1 6.18431 17.3818 2.46426 
5 1 5.35802 17.3131 1.22773 
9 1 3.96111 17.3898 1.22774 
16 1 7.16341 16.2202 2.46426 
32 1 7.49608 15.5883 1.22775 
40 1 8.08176 14.3427 1.22774 
45 1 3.24708 17.4112 2.46425 
49 1 1.76992 17.4019 2.46426 
53 1 1.03368 17.3975 1.22774 
4 1 10.9404 8.51066 2.46426 
8 1 11.768 8.50955 1.22773 
12 1 13.161 8.5077 1.22774 
18 1 10.0104 7.29723 2.46426 
21 1 8.23033 3.39546 2.46428 
26 1 8.83327 4.7501 2.46425 
34 1 9.64801 6.68791 1.22774 
42 1 9.06349 5.43693 1.22774 
48 1 13.8905 8.50803 2.46426 
52 1 15.3624 8.50803 2.46425 
56 1 16.0993 8.50799 1.22774 
57 2 9.15074 1.21624 1.22795 
58 3 10.0468 1.17318 1.22805 
19 1 10.0099 9.72453 2.46426 
24 1 8.32887 13.66 2.46426 
27 1 8.80711 12.2579 2.46426 
35 1 9.64306 10.3312 1.22774 
43 1 9.04964 11.5737 1.22774 
3 1 22.6038 8.508 2.46425 
7 1 21.7772 8.508 1.22773 
11 1 20.3818 8.508 1.22774 
20 1 23.5335 7.29605 2.46426 
36 1 23.9017 6.69071 1.22775 
44 1 24.4953 5.44867 1.22774 
47 1 19.6478 8.508 2.46426 
51 1 18.1824 8.508 2.46426 
55 1 17.4431 8.50799 1.22774 
17 1 23.5335 9.71995 2.46426 
33 1 23.9017 10.3253 1.22775 
41 1 24.4953 11.5673 1.22774 
15 1 26.416 0.831075 2.46427 
23 1 25.2127 3.36001 2.46426 
28 1 24.7362 4.76559 2.46426 
31 1 26.0463 1.43918 1.22775 
39 1 25.4551 2.67641 1.22774 
2 1 27.3419 17.398 2.46425 
6 1 28.1754 17.398 1.22772 
10 1 29.5682 17.398 1.22774 
14 1 26.416 16.1849 2.46427 
22 1 25.2127 13.656 2.46426 
25 1 24.7362 12.2504 2.46426 
30 1 26.0463 15.5768 1.22775 
38 1 25.4551 14.3396 1.22774 
46 1 30.2959 17.398 2.46426 
50 1 31.7752 17.398 2.46426 
54 1 32.5088 17.3975 1.22774 
ITEM: TIMESTEP
50
ITEM: NUMBER OF ATOMS
58
ITEM: BOX BOUNDS pp pp pp
0.0000000000000000e+00 3.2808000000000000e+01
0.0000000000000000e+00 1.7780000000000001e+01
0.0000000000000000e+00 2.4729999999999999e+00
ITEM: ATOMS id type x y z 
13 1 7.03215 0.888724 2.46418 
29 1 7.19636 1.55552 1.2278 
37 1 7.81011 2.80523 1.22785 
1 1 6.20104 17.3578 2.46421 
5 1 5.37532 17.2781 1.22781 
9 1 3.98984 17.3826 1.22777 
16 1 7.24569 16.25 2.46422 
32 1 7.56186 15.6129 1.22778 
40 1 8.12051 14.3512 1.22779 
45 1 3.22911 17.4343 2.46422 
49 1 1.80084 17.4094 2.46422 
53 1 1.0263 17.396 1.22778 
4 1 10.9223 8.51024 2.46419 
8 1 11.7526 8.51049 1.22782 
12 1 13.1496 8.50772 1.22777 
18 1 9.98954 7.31075 2.46421 
21 1 8.22369 3.41199 2.46416 
26 1 8.84445 4.74728 2.46422 
34 1 9.60357 6.70439 1.22778 
42 1 9.04694 5.45621 1.22777 
48 1 13.8849 8.50745 2.46422 
52 1 15.3492 8.50801 2.46422 
56 1 16.0898 8.508 1.22777 
57 2 9.19517 1.17512 1.22796 
58 3 10.1286 1.16099 1.22806 
19 1 9.99302 9.71072 2.46421 
24 1 8.34982 13.666 2.46422 
27 1 8.78592 12.2464 2.46421 
35 1 9.59679 10.3095 1.22778 
43 1 9.00551 11.5572 1.22779 
3 1 22.613 8.508 2.4642 
7 1 21.7832 8.508 1.22781 
11 1 20.3906 8.508 1.22777 
20 1 23.5507 7.30636 2.46421 
36 1 23.9473 6.71584 1.22778 
44 1 24.5414 5.46347 1.22779 
47 1 19.6666 8.508 2.46422 
51 1 18.1899 8.508 2.46422 
55 1 17.4597 8.50798 1.22778 
17 1 23.5507 9.70964 2.46421 
33 1 23.9473 10.3002 1.22778 
41 1 24.5414 11.5525 1.22779 
15 1 26.3947 0.821725 2.46421 
23 1 25.1883 3.35372 2.46422 
28 1 24.7589 4.77545 2.46421 
31 1 25.9983 1.41855 1.22778 
39 1 25.4073 2.66401 1.22779 
2 1 27.3263 17.398 2.4642 
6 1 28.1619 17.398 1.22781 
10 1 29.5526 17.398 1.22778 
14 1 26.3947 16.1943 2.46421 
22 1 25.1883 13.6623 2.46422 
25 1 24.7589 12.2406 2.46421 
30 1 25.9983 15.5975 1.22778 
38 1 25.4073 14.352 1.22779 
46 1 30.2755 17.3981 2.46422 
50 1 31.7596 17.398 2.46422 
54 1 32.4876 17.3956 1.22778 
ITEM: TIMESTEP
60
ITEM: NUMBER OF ATOMS
58
ITEM: BOX BOUNDS pp pp pp
0.0000000000000000e+00 3.2808000000000000e+01
0.0000000000000000e+00 1.7780000000000001e+01
0.0000000000000000e+00 2.4729999999999999e+00
ITEM: ATOMS id type x y z 
13 1 6.93343 0.900023 2.46429 
29 1 7.17996 1.56649 1.22772 
37 1 7.77286 2.80466 1.22764 
1 1 6.20617 17.3424 2.46432 
5 1 5.37729 17.2228 1.22767 
9 1 3.99679 17.3797 1.22772 
16 1 7.30977 16.2939 2.46426 
32 1 7.67615 15.6884 1.22774 
40 1 8.19238 14.3723 1.22771 
45 1 3.29637 17.4569 2.46428 
49 1 1.80969 17.4311 2.46428 
53 1 1.09383 17.3944 1.22771 
4 1 10.9231 8.515 2.46433 
8 1 11.7381 8.50913 1.22765 
12 1 13.1434 8.5078 1.22772 
18 1 9.96489 7.32517 2.46428 
21 1 8.21545 3.39438 2.46434 
26 1 8.85196 4.72325 2.46427 
34 1 9.54365 6.75397 1.22772 
42 1 9.00263 5.4354 1.22772 
48 1 13.8807 8.50642 2.46428 
52 1 15.3416 8.50773 2.46428 
56 1 16.0879 8.50813 1.22772 
57 2 9.27967 1.13606 1.22796 
58 3 10.1566 1.15005 1.22807 
19 1 9.97428 9.70884 2.46428 
24 1 8.38498 13.6704 2.46429 
27 1 8.73491 12.2368 2.46429 
35 1 9.52526 10.2652 1.22772 
43 1 8.91445 11.5304 1.22771 
3 1 22.6203 8.508 2.46432 
7 1 21.8054 8.508 1.22767 
11 1 20.4001 8.508 1.22772 
20 1 23.5727 7.3076 2.46428 
36 1 24.0183 6.76011 1.22772 
44 1 24.634 5.49405 1.22771 
47 1 19.6531 8.508 2.46429 
51 1 18.2031 8.50799 2.46428 
55 1 17.4483 8.50805 1.22771 
17 1 23.5727 9.7084 2.46428 
33 1 24.0183 10.2559 1.22772 
41 1 24.634 11.522 1.22771 
15 1 26.3692 0.817172 2.46428 
23 1 25.135 3.34695 2.46429 
28 1 24.811 4.78564 2.46429 
31 1 25.9301 1.3681 1.22772 
39 1 25.3135 2.63807 1.22771 
2 1 27.325 17.398 2.46433 
6 1 28.1354 17.3979 1.22765 
10 1 29.5465 17.3982 1.22772 
14 1 26.3692 16.1988 2.46428 
22 1 25.135 13.669 2.46429 
25 1 24.811 12.2304 2.46429 
30 1 25.93 15.6479 1.22772 
38 1 25.3135 14.3779 1.22771 
46 1 30.2911 17.3989 2.46429 
50 1 31.7485 17.397 2.46428 
54 1 32.4884 17.3886 1.22772 
ITEM: TIMESTEP
70
ITEM: NUMBER OF ATOMS
58
ITEM: BOX BOUNDS pp pp pp
0.0000000000000000e+00 3.2808000000000000e+01
0.0000000000000000e+00 1.7780000000000001e+01
0.0000000000000000e+00 2.4729999999999999e+00
ITEM: ATOMS id type x y z 
13 1 6.90453 0.90232 2.46427 
29 1 7.16052 1.55339 1.22773 
37 1 7.78656 2.82078 1.22768 
1 1 6.2101 17.319 2.46428 
5 1 5.38826 17.1763 1.22772 
9 1 4.00912 17.3779 1.22773 
16 1 7.34613 16.3097 2.46426 
32 1 7.71951 15.7052 1.22774 
40 1 8.22669 14.3831 1.22773 
45 1 3.28369 17.4727 2.46427 
49 1 1.80288 17.4413 2.46427 
53 1 1.08534 17.3966 1.22773 
4 1 10.9109 8.51341 2.46428 
8 1 11.734 8.50839 1.22771 
12 1 13.1425 8.50709 1.22773 
18 1 9.95456 7.32869 2.46427 
21 1 8.22423 3.40198 2.46431 
26 1 8.85468 4.73213 2.46426 
34 1 9.53001 6.75716 1.22773 
42 1 9.00289 5.45124 1.22773 
48 1 13.8763 8.50643 2.46427 
52 1 15.3346 8.5076 2.46427 
56 1 16.0783 8.50817 1.22773 
57 2 9.26466 1.13006 1.22795 
58 3 10.1871 1.14767 1.22807 
19 1 9.9693 9.70821 2.46427 
24 1 8.39621 13.6708 2.46427 
27 1 8.70886 12.2316 2.46428 
35 1 9.5096 10.2533 1.22773 
43 1 8.87858 11.5206 1.22773 
3 1 22.6227 8.508 2.46428 
7 1 21.8072 8.508 1.22771 
11 1 20.408 8.508 1.22773 
20 1 23.5773 7.31228 2.46427 
36 1 24.0342 6.77228 1.22773 
44 1 24.6729 5.50174 1.22773 
47 1 19.6618 8.50799 2.46427 
51 1 18.2075 8.50799 2.46427 
55 1 17.4576 8.50814 1.22773 
17 1 23.5773 9.70372 2.46427 
33 1 24.0342 10.2437 1.22773 
41 1 24.6729 11.5142 1.22773 
15 1 26.3684 0.810364 2.46427 
23 1 25.1108 3.34691 2.46428 
28 1 24.8368 4.78137 2.46428 
31 1 25.9189 1.34986 1.22773 
39 1 25.2766 2.62917 1.22773 
2 1 27.3273 17.398 2.46428 
6 1 28.1347 17.3979 1.22771 
10 1 29.54 17.3986 1.22773 
14 1 26.3684 16.2056 2.46427 
22 1 25.1108 13.6691 2.46428 
25 1 24.8368 12.2346 2.46428 
30 1 25.9188 15.6661 1.22773 
38 1 25.2766 14.3868 1.22773 
46 1 30.2855 17.3995 2.46427 
50 1 31.7317 17.3949 2.46427 
54 1 32.4847 17.3842 1.22773 
ITEM: TIMESTEP
80
ITEM: NUMBER OF ATOMS
58
ITEM: BOX BOUNDS pp pp pp
0.0000000000000000e+00 3.2808000000000000e+01
0.0000000000000000e+00 1.7780000000000001e+01
0.0000000000000000e+00 2.4729999999999999e+00
ITEM: ATOMS id type x y z 
13 1 6.83284 0.910859 2.46421 
29 1 7.12519 1.53121 1.22777 
37 1 7.80355 2.80641 1.22784 
1 1 6.20681 17.2791 2.4642 
5 1 5.41576 17.0985 1.22781 
9 1 4.03277 17.3704 1.22778 
16 1 7.39065 16.3655 2.46424 
32 1 7.80463 15.7657 1.22776 
40 1 8.30279 14.3989 1.22779 
45 1 3.27854 17.4978 2.46421 
49 1 1.85685 17.4669 2.46422 
53 1 1.08525 17.4028 1.22778 
4 1 10.9079 8.51487 2.46419 
8 1 11.7341 8.5071 1.22782 
12 1 13.1259 8.50573 1.22777 
18 1 9.93702 7.343 2.46422 
21 1 8.22725 3.40175 2.46416 
26 1 8.85192 4.72688 2.46423 
34 1 9.50496 6.77447 1.22777 
42 1 8.98773 5.45298 1.22777 
48 1 13.8692 8.50618 2.46422 
52 1 15.3256 8.50749 2.46422 
56 1 16.0674 8.50822 1.22777 
57 2 9.27829 1.11917 1.22795 
58 3 10.2017 1.14216 1.22808 
19 1 9.95951 9.71418 2.46422 
24 1 8.42302 13.6638 2.46422 
27 1 8.64357 12.2403 2.46422 
35 1 9.47763 10.2285 1.22778 
43 1 8.79334 11.5055 1.22778 
3 1 22.6292 8.50799 2.4642 
7 1 21.7998 8.508 1.22781 
11 1 20.4076 8.50799 1.22778 
20 1 23.5841 7.32229 2.46422 
36 1 24.0662 6.8044 1.22778 
44 1 24.772 5.51246 1.22778 
47 1 19.6769 8.50796 2.46422 
51 1 18.2072 8.50803 2.46422 
55 1 17.4762 8.50833 1.22778 
17 1 23.5841 9.69371 2.46422 
33 1 24.0662 10.2115 1.22778 
41 1 24.772 11.5035 1.22778 
15 1 26.3634 0.80054 2.46422 
23 1 25.0566 3.35169 2.46422 
28 1 24.8952 4.76229 2.46422 
31 1 25.8865 1.32104 1.22777 
39 1 25.1817 2.61898 1.22778 
2 1 27.3133 17.3979 2.46419 
6 1 28.1471 17.3979 1.22782 
10 1 29.5322 17.4 1.22778 
14 1 26.3633 16.2155 2.46422 
22 1 25.0565 13.664 2.46422 
25 1 24.8952 12.2537 2.46422 
30 1 25.8865 15.6951 1.22777 
38 1 25.1816 14.397 1.22778 
46 1 30.2776 17.4009 2.46422 
50 1 31.7364 17.3884 2.46422 
54 1 32.4748 17.3742 1.22778 
ITEM: TIMESTEP
90
ITEM: NUMBER OF ATOMS
58
ITEM: BOX BOUNDS pp pp pp
0.0000000000000000e+00 3.2808000000000000e+01
0.0000000000000000e+00 1.7780000000000001e+01
0.0000000000000000e+00 2.4729999999999999e+00
ITEM: ATOMS id type x y z 
13 1 6.80902 0.899854 2.46426 
29 1 7.11175 1.52342 1.22773 
37 1 7.80542 2.80446 1.2277 
1 1 6.20652 17.2637 2.46427 
5 1 5.41229 17.0773 1.22773 
9 1 4.03391 17.369 1.22773 
16 1 7.41343 16.363 2.46425 
32 1 7.82999 15.7717 1.22775 
40 1 8.31828 14.4024 1.22774 
45 1 3.29664 17.5031 2.46426 
49 1 1.84076 17.4733 2.46426 
53 1 1.11755 17.4066 1.22773 
4 1 10.9059 8.52765 2.46428 
8 1 11.7249 8.50889 1.22772 
12 1 13.1229 8.50528 1.22774 
18 1 9.93168 7.34846 2.46426 
21 1 8.23651 3.40656 2.46429 
26 1 8.85044 4.72053 2.46426 
34 1 9.501 6.78411 1.22774 
42 1 8.98223 5.45403 1.22774 
48 1 13.8697 8.50595 2.46426 
52 1 15.3248 8.50751 2.46426 
56 1 16.0676 8.50825 1.22774 
57 2 9.28102 1.1165 1.22795 
58 3 10.2045 1.14072 1.22808 
19 1 9.95542 9.7189 2.46426 
24 1 8.42754 13.6704 2.46427 
27 1 8.62821 12.2378 2.46426 
35 1 9.46989 10.2327 1.22774 
43 1 8.77137 11.5085 1.22774 
3 1 22.6454 8.50797 2.46427 
7 1 21.8282 8.508 1.22773 
11 1 20.427 8.50799 1.22774 
20 1 23.6034 7.31535 2.46426 
36 1 24.0678 6.78901 1.22774 
44 1 24.7651 5.51189 1.22774 
47 1 19.6745 8.50795 2.46426 
51 1 18.2351 8.50806 2.46426 
55 1 17.4798 8.50837 1.22774 
17 1 23.6034 9.70062 2.46426 
33 1 24.0678 10.227 1.22774 
41 1 24.7651 11.5041 1.22774 
15 1 26.3445 0.81077 2.46426 
23 1 25.0494 3.3459 2.46426 
28 1 24.9005 4.78011 2.46426 
31 1 25.8802 1.33823 1.22774 
39 1 25.1861 2.61598 1.22774 
2 1 27.2982 17.3979 2.46428 
6 1 28.1198 17.3981 1.22772 
10 1 29.5162 17.4006 1.22774 
14 1 26.3444 16.2052 2.46426 
22 1 25.0493 13.67 2.46426 
25 1 24.9005 12.2358 2.46426 
30 1 25.8801 15.6778 1.22774 
38 1 25.186 14.4 1.22774 
46 1 30.2835 17.401 2.46426 
50 1 31.7241 17.3858 2.46426 
54 1 32.4643 17.3718 1.22774 
ITEM: TIMESTEP
100
ITEM: NUMBER OF ATOMS
58
ITEM: BOX BOUNDS pp pp pp
0.0000000000000000e+00 3.2808000000000000e+01
0.0000000000000000e+00 1.7780000000000001e+01
0.0000000000000000e+00 2.4729999999999999e+00
ITEM: ATOMS id type x y z 
13 1 6.79065 0.895437 2.46425 
29 1 7.09812 1.51633 1.22774 
37 1 7.80554 2.78633 1.22773 
1 1 6.20843 17.25 2.46425 
5 1 5.41165 17.063 1.22775 
9 1 4.03229 17.3658 1.22774 
16 1 7.42349 16.3686 2.46425 
32 1 7.8555 15.7828 1.22775 
40 1 8.33529 14.411 1.22775 
45 1 3.29288 17.502 2.46425 
49 1 1.84317 17.4792 2.46425 
53 1 1.10924 17.4139 1.22774 
4 1 10.8945 8.53691 2.46425 
8 1 11.7198 8.51354 1.22774 
12 1 13.1153 8.50427 1.22775 
18 1 9.92746 7.36089 2.46425 
21 1 8.23298 3.39489 2.46426 
26 1 8.843 4.71135 2.46425 
34 1 9.49843 6.79826 1.22774 
42 1 8.97071 5.4378 1.22774 
48 1 13.8678 8.50529 2.46425 
52 1 15.3124 8.50749 2.46425 
56 1 16.0538 8.50832 1.22775 
57 2 9.28343 1.11378 1.22795 
58 3 10.2076 1.13884 1.22808 
19 1 9.94677 9.7294 2.46425 
24 1 8.43329 13.676 2.46426 
27 1 8.60713 12.2414 2.46426 
35 1 9.45881 10.2408 1.22775 
43 1 8.74736 11.5108 1.22774 
3 1 22.6629 8.50797 2.46425 
7 1 21.8396 8.50799 1.22775 
11 1 20.4439 8.50797 1.22775 
20 1 23.6124 7.31557 2.46425 
36 1 24.0739 6.78739 1.22775 
44 1 24.7825 5.51081 1.22774 
47 1 19.688 8.50793 2.46425 
51 1 18.2493 8.5081 2.46425 
55 1 17.5019 8.50844 1.22775 
17 1 23.6124 9.7004 2.46425 
33 1 24.0739 10.2286 1.22775 
41 1 24.7825 11.5051 1.22774 
15 1 26.3404 0.806127 2.46425 
23 1 25.0393 3.34157 2.46426 
28 1 24.9117 4.78135 2.46426 
31 1 25.8785 1.33708 1.22774 
39 1 25.1729 2.6106 1.22775 
2 1 27.2973 17.3979 2.46425 
6 1 28.1232 17.3985 1.22775 
10 1 29.5178 17.4013 1.22775 
14 1 26.3404 16.2099 2.46425 
22 1 25.0393 13.6744 2.46426 
25 1 24.9117 12.2346 2.46426 
30 1 25.8783 15.6789 1.22774 
38 1 25.1728 14.4054 1.22775 
46 1 30.2814 17.4001 2.46425 
50 1 31.7226 17.3821 2.46425 
54 1 32.4633 17.3715 1.22775 
ITEM: TIMESTEP
110
ITEM: NUMBER OF ATOMS
58
ITEM: BOX BOUNDS pp pp pp
0.0000000000000000e+00 3.2808000000000000e+01
0.0000000000000000e+00 1.7780000000000001e+01
0.0000000000000000e+00 2.4729999999999999e+00
ITEM: ATOMS id type x y z 
13 1 6.78367 0.892472 2.46425 
29 1 7.09251 1.51281 1.22775 
37 1 7.80993 2.78448 1.22774 
1 1 6.20559 17.2436 2.46425 
5 1 5.41293 17.0617 1.22775 
9 1 4.0321 17.3634 1.22775 
16 1 7.42611 16.3696 2.46425 
32 1 7.86334 15.7891 1.22775 
40 1 8.34189 14.4137 1.22775 
45 1 3.28865 17.4992 2.46425 
49 1 1.84595 17.4812 2.46425 
53 1 1.10414 17.4177 1.22775 
4 1 10.8934 8.53934 2.46425 
8 1 11.7162 8.51585 1.22775 
12 1 13.1131 8.50403 1.22775 
18 1 9.92389 7.36314 2.46425 
21 1 8.23073 3.39253 2.46425 
26 1 8.83522 4.70907 2.46425 
34 1 9.49811 6.79669 1.22775 
42 1 8.97231 5.43688 1.22775 
48 1 13.8688 8.5048 2.46425 
52 1 15.3129 8.50743 2.46425 
56 1 16.0549 8.50835 1.22775 
57 2 9.28455 1.11265 1.22795 
58 3 10.2088 1.13798 1.22808 
19 1 9.94222 9.73149 2.46425 
24 1 8.43534 13.6798 2.46425 
27 1 8.59854 12.2415 2.46425 
35 1 9.45666 10.2441 1.22775 
43 1 8.74011 11.511 1.22775 
3 1 22.6647 8.50798 2.46425 
7 1 21.8418 8.50799 1.22775 
11 1 20.4445 8.50796 1.22775 
20 1 23.6172 7.31375 2.46425 
36 1 24.0794 6.78435 1.22775 
44 1 24.7889 5.5144 1.22775 
47 1 19.6886 8.50793 2.46425 
51 1 18.245 8.50812 2.46425 
55 1 17.5021 8.50846 1.22775 
17 1 23.6172 9.70222 2.46425 
33 1 24.0794 10.2316 1.22775 
41 1 24.7889 11.5015 1.22775 
15 1 26.3388 0.805701 2.46425 
23 1 25.035 3.33945 2.46425 
28 1 24.917 4.7794 2.46425 
31 1 25.8777 1.33556 1.22775 
39 1 25.168 2.60633 1.22775 
2 1 27.3025 17.3979 2.46425 
6 1 28.1226 17.3987 1.22775 
10 1 29.5226 17.4015 1.22775 
14 1 26.3388 16.2103 2.46425 
22 1 25.0349 13.6765 2.46425 
25 1 24.917 12.2366 2.46425 
30 1 25.8775 15.6804 1.22775 
38 1 25.168 14.4096 1.22775 
46 1 30.28 17.3995 2.46425 
50 1 31.7227 17.3806 2.46425 
54 1 32.4674 17.3721 1.22775 
ITEM: TIMESTEP
120
ITEM: NUMBER OF ATOMS
58
ITEM: BOX BOUNDS pp pp pp
0.0000000000000000e+00 3.2808000000000000e+01
0.0000000000000000e+00 1.7780000000000001e+01
0.0000000000000000e+00 2.4729999999999999e+00
ITEM: ATOMS id type x y z 
13 1 6.74554 0.88042 2.46425 
29 1 7.06474 1.50079 1.22775 
37 1 7.83002 2.75189 1.22774 
1 1 6.21198 17.2155 2.46425 
5 1 5.41816 17.0423 1.22775 
9 1 4.03419 17.3438 1.22775 
16 1 7.45217 16.3701 2.46425 
32 1 7.92158 15.8139 1.22775 
40 1 8.38503 14.4295 1.22775 
45 1 3.28797 17.4802 2.46425 
49 1 1.84704 17.498 2.46425 
53 1 1.10068 17.4458 1.22775 
4 1 10.8891 8.55483 2.46425 
8 1 11.7055 8.53371 1.22775 
12 1 13.1101 8.50416 1.22775 
18 1 9.90874 7.38242 2.46425 
21 1 8.20825 3.38065 2.46425 
26 1 8.77834 4.72139 2.46425 
34 1 9.51979 6.78992 1.22775 
42 1 8.98947 5.42418 1.22775 
48 1 13.8717 8.50075 2.46425 
52 1 15.3108 8.50634 2.46425 
56 1 16.0603 8.50842 1.22775 
57 2 9.29318 1.10399 1.22794 
58 3 10.2176 1.131 1.22809 
19 1 9.91223 9.73523 2.46425 
24 1 8.44933 13.6939 2.46425 
27 1 8.54162 12.2439 2.46425 
35 1 9.45295 10.2673 1.22775 
43 1 8.7034 11.5208 1.22775 
3 1 22.6751 8.50803 2.46425 
7 1 21.8585 8.50798 1.22775 
11 1 20.4535 8.5079 1.22775 
20 1 23.645 7.32141 2.46425 
36 1 24.0902 6.77971 1.22775 
44 1 24.8126 5.51221 1.22775 
47 1 19.6918 8.50793 2.46425 
51 1 18.2526 8.50834 2.46425 
55 1 17.5033 8.50869 1.22775 
17 1 23.6451 9.69461 2.46425 
33 1 24.0902 10.2363 1.22775 
41 1 24.8126 11.5039 1.22775 
15 1 26.3254 0.801448 2.46425 
23 1 25.0111 3.33288 2.46425 
28 1 24.9442 4.78149 2.46425 
31 1 25.8707 1.33674 1.22775 
39 1 25.145 2.60252 1.22775 
2 1 27.2978 17.3979 2.46425 
6 1 28.1153 17.4003 1.22775 
10 1 29.5186 17.4021 1.22775 
14 1 26.3259 16.2144 2.46425 
22 1 25.0111 13.6832 2.46425 
25 1 24.9442 12.2346 2.46425 
30 1 25.8709 15.6793 1.22775 
38 1 25.1451 14.4135 1.22775 
46 1 30.2787 17.394 2.46425 
50 1 31.7186 17.3704 2.46425 
54 1 32.4666 17.3753 1.22775 
ITEM: TIMESTEP
130
ITEM: NUMBER OF ATOMS
58
ITEM: BOX BOUNDS pp pp pp
0.0000000000000000e+00 3.2808000000000000e+01
0.0000000000000000e+00 1.7780000000000001e+01
0.0000000000000000e+00 2.4729999999999999e+00
ITEM: ATOMS id type x y z 
13 1 6.75617 0.878772 2.46425 
29 1 7.07195 1.49933 1.22775 
37 1 7.81244 2.7613 1.22775 
1 1 6.21686 17.2153 2.46425 
5 1 5.41889 17.0533 1.22775 
9 1 4.03116 17.3263 1.22775 
16 1 7.45495 16.3679 2.46425 
32 1 7.92401 15.8123 1.22775 
40 1 8.39325 14.4321 1.22775 
45 1 3.28484 17.4563 2.46425 
49 1 1.84473 17.5008 2.46425 
53 1 1.0985 17.4603 1.22775 
4 1 10.891 8.56112 2.46425 
8 1 11.7103 8.54231 1.22775 
12 1 13.1109 8.50833 1.22775 
18 1 9.93044 7.37161 2.46425 
21 1 8.18739 3.39429 2.46424 
26 1 8.75977 4.72869 2.46425 
34 1 9.55036 6.77808 1.22775 
42 1 8.98997 5.42827 1.22775 
48 1 13.8686 8.50021 2.46425 
52 1 15.311 8.50411 2.46425 
56 1 16.0577 8.50765 1.22775 
57 2 9.30579 1.08554 1.22794 
58 3 10.2264 1.12648 1.2281 
19 1 9.91366 9.73669 2.46425 
24 1 8.4489 13.6933 2.46425 
27 1 8.53928 12.2471 2.46425 
35 1 9.45558 10.2699 1.22775 
43 1 8.71361 11.5241 1.22775 
3 1 22.6685 8.50813 2.46425 
7 1 21.8503 8.50801 1.22775 
11 1 20.4487 8.50789 1.22775 
20 1 23.6408 7.32553 2.46425 
36 1 24.0906 6.78636 1.22775 
44 1 24.7998 5.51256 1.22775 
47 1 19.6905 8.50799 2.46425 
51 1 18.2486 8.50853 2.46425 
55 1 17.5015 8.50895 1.22775 
17 1 23.6409 9.69063 2.46425 
33 1 24.0906 10.2298 1.22775 
41 1 24.7996 11.5038 1.22775 
15 1 26.3234 0.800397 2.46425 
23 1 25.0154 3.33656 2.46425 
28 1 24.9388 4.78222 2.46425 
31 1 25.8701 1.33659 1.22775 
39 1 25.1527 2.60508 1.22775 
2 1 27.2976 17.3982 2.46425 
6 1 28.1153 17.4011 1.22775 
10 1 29.5175 17.3988 1.22775 
14 1 26.3246 16.2154 2.46425 
22 1 25.0156 13.6797 2.46425 
25 1 24.9387 12.2341 2.46425 
30 1 25.8711 15.6794 1.22775 
38 1 25.1532 14.4112 1.22775 
46 1 30.2763 17.3886 2.46425 
50 1 31.7176 17.3706 2.46425 
54 1 32.4644 17.3838 1.22775 
ITEM: TIMESTEP
140
ITEM: NUMBER OF ATOMS
58
ITEM: BOX BOUNDS pp pp pp
0.0000000000000000e+00 3.2808000000000000e+01
0.0000000000000000e+00 1.7780000000000001e+01
0.0000000000000000e+00 2.4729999999999999e+00
ITEM: ATOMS id type x y z 
13 1 6.75617 0.873812 2.46425 
29 1 7.06968 1.49507 1.22775 
37 1 7.81107 2.7588 1.22775 
1 1 6.21449 17.2096 2.46425 
5 1 5.41929 17.0415 1.22775 
9 1 4.03046 17.3142 1.22775 
16 1 7.45868 16.369 2.46425 
32 1 7.93329 15.8181 1.22775 
40 1 8.40187 14.4359 1.22775 
45 1 3.28419 17.4466 2.46425 
49 1 1.84478 17.5038 2.46425 
53 1 1.09758 17.4681 1.22775 
4 1 10.8884 8.56793 2.46425 
8 1 11.7076 8.55243 1.22775 
12 1 13.1099 8.50979 1.22775 
18 1 9.94208 7.36658 2.46425 
21 1 8.17473 3.39676 2.46425 
26 1 8.75252 4.73218 2.46425 
34 1 9.56089 6.77482 1.22775 
42 1 8.98507 5.42866 1.22775 
48 1 13.87 8.49968 2.46425 
52 1 15.3102 8.50274 2.46425 
56 1 16.0584 8.50675 1.22775 
57 2 9.30532 1.08237 1.22794 
58 3 10.2328 1.12366 1.2281 
19 1 9.91223 9.74294 2.46425 
24 1 8.45194 13.6983 2.46425 
27 1 8.53558 12.2494 2.46425 
35 1 9.45085 10.2736 1.22775 
43 1 8.7027 11.5265 1.22775 
3 1 22.6707 8.50822 2.46425 
7 1 21.8531 8.50807 1.22775 
11 1 20.4501 8.5079 1.22775 
20 1 23.641 7.32359 2.46425 
36 1 24.0939 6.78681 1.22775 
44 1 24.8046 5.51356 1.22775 
47 1 19.6903 8.50804 2.46425 
51 1 18.2497 8.50877 2.46425 
55 1 17.5019 8.50908 1.22775 
17 1 23.6411 9.6927 2.46425 
33 1 24.0939 10.2295 1.22775 
41 1 24.8044 11.503 1.22775 
15 1 26.3233 0.801303 2.46425 
23 1 25.0158 3.33586 2.46425 
28 1 24.9371 4.78224 2.46425 
31 1 25.8672 1.33561 1.22775 
39 1 25.1493 2.60445 1.22775 
2 1 27.2961 17.3986 2.46425 
6 1 28.1139 17.4011 1.22775 
10 1 29.5166 17.3961 1.22775 
14 1 26.3251 16.2145 2.46425 
22 1 25.0162 13.6807 2.46425 
25 1 24.9369 12.2343 2.46425 
30 1 25.8689 15.6804 1.22775 
38 1 25.1503 14.4119 1.22775 
46 1 30.2761 17.3853 2.46425 
50 1 31.7167 17.3716 2.46425 
54 1 32.464 17.3891 1.22775 
ITEM: TIMESTEP
150
ITEM: NUMBER OF ATOMS
58
ITEM: BOX BOUNDS pp pp pp
0.0000000000000000e+00 3.2808000000000000e+01
0.0000000000000000e+00 1.7780000000000001e+01
0.0000000000000000e+00 2.4729999999999999e+00
ITEM: ATOMS id type x y z 
13 1 6.76041 0.872815 2.46425 
29 1 7.07285 1.48958 1.22775 
37 1 7.80166 2.76186 1.22774 
1 1 6.21481 17.2047 2.46425 
5 1 5.41999 17.036 1.22775 
9 1 4.02897 17.2924 1.22775 
16 1 7.46332 16.3699 2.46425 
32 1 7.94261 15.8232 1.22775 
40 1 8.41215 14.4409 1.22775 
45 1 3.28312 17.4262 2.46425 
49 1 1.84452 17.5065 2.46425 
53 1 1.09704 17.4803 1.22775 
4 1 10.8875 8.57516 2.46425 
8 1 11.7084 8.56761 1.22775 
12 1 13.1092 8.51523 1.22775 
18 1 9.96033 7.35756 2.46425 
21 1 8.1552 3.40484 2.46425 
26 1 8.73311 4.73981 2.46425 
34 1 9.58488 6.76489 1.22775 
42 1 8.98309 5.42916 1.22775 
48 1 13.8698 8.49951 2.46425 
52 1 15.3099 8.49991 2.46425 
56 1 16.0576 8.50467 1.22775 
57 2 9.308 1.07728 1.22793 
58 3 10.2402 1.11849 1.22811 
19 1 9.90565 9.74219 2.46425 
24 1 8.45851 13.7028 2.46425 
27 1 8.53133 12.2527 2.46425 