LAMMPS (3 Mar 2020)
Reading data file ...
  orthogonal box = (0 0 0) to (11 11.002 11)
  2 by 2 by 2 MPI processor grid
  reading atoms ...
  49 atoms
  read_data CPU = 0.00185061 secs
WARNING: Changed valency_val to valency_boc for X (../reaxc_ffield.cpp:315)
WARNING: Using 'neigh_modify every 1 delay 0 check yes' setting during minimization (../min.cpp:190)
Neighbor list info ...
  update every 1 steps, delay 0 steps, check yes
  max neighbors/atom: 2000, page size: 100000
  master list distance cutoff = 12
  ghost atom cutoff = 12
  binsize = 6, bins = 2 2 2
  2 neighbor lists, perpetual/occasional/extra = 2 0 0
  (1) pair reax/c, perpetual
      attributes: half, newton off, ghost
      pair build: half/bin/newtoff/ghost
      stencil: half/ghost/bin/3d/newtoff
      bin: standard
  (2) fix qeq/reax, perpetual, copy from (1)
      attributes: half, newton off, ghost
      pair build: copy
      stencil: none
      bin: none
Setting up cg style minimization ...
  Unit style    : real
  Current step  : 0
Per MPI rank memory allocation (min/avg/max) = 24.8 | 24.88 | 24.96 Mbytes
Step Temp E_pair E_mol TotEng Press 
       0            0   -8236.5925            0   -8236.5925    130546.95 
      59            0   -8728.9274            0   -8728.9274    53852.428 
Loop time of 1.66907 on 8 procs for 59 steps with 49 atoms

98.8% CPU use with 8 MPI tasks x no OpenMP threads

Minimization stats:
  Stopping criterion = energy tolerance
  Energy initial, next-to-last, final = 
        -8236.59248748     -8728.92735136     -8728.92736844
  Force two-norm initial, final = 2125.18 86.9319
  Force max component initial, final = 1272.47 25.598
  Final line search alpha, max atom move = 0.000122075 0.00312488
  Iterations, force evaluations = 59 321

MPI task timing breakdown:
Section |  min time  |  avg time  |  max time  |%varavg| %total
---------------------------------------------------------------
Pair    | 1.3553     | 1.3766     | 1.4056     |   1.5 | 82.48
Neigh   | 0          | 0          | 0          |   0.0 |  0.00
Comm    | 0.018555   | 0.047411   | 0.068638   |   8.0 |  2.84
Output  | 0.00016471 | 0.00020295 | 0.00030846 |   0.0 |  0.01
Modify  | 0.2406     | 0.24076    | 0.24104    |   0.0 | 14.42
Other   |            | 0.00411    |            |       |  0.25

Nlocal:    6.125 ave 7 max 6 min
Histogram: 7 0 0 0 0 0 0 0 0 1
Nghost:    948.375 ave 953 max 944 min
Histogram: 4 0 0 0 0 0 0 0 1 3
Neighs:    1698.25 ave 1945 max 1660 min
Histogram: 7 0 0 0 0 0 0 0 0 1

Total # of neighbors = 13586
Ave neighs/atom = 277.265
Neighbor list builds = 0
Dangerous builds = 0
WARNING: Using 'neigh_modify every 1 delay 0 check yes' setting during minimization (../min.cpp:190)
Setting up cg style minimization ...
  Unit style    : real
  Current step  : 59
Per MPI rank memory allocation (min/avg/max) = 24.8 | 24.88 | 24.96 Mbytes
Step Temp E_pair E_mol TotEng Press 
      59            0   -8728.9274            0   -8728.9274    53852.418 
      82            0   -8734.9239            0   -8734.9239    49805.378 
Loop time of 0.781164 on 8 procs for 23 steps with 49 atoms

99.0% CPU use with 8 MPI tasks x no OpenMP threads

Minimization stats:
  Stopping criterion = energy tolerance
  Energy initial, next-to-last, final = 
         -8728.9273699     -8734.92386293     -8734.92393335
  Force two-norm initial, final = 86.9319 81.2871
  Force max component initial, final = 25.598 19.8497
  Final line search alpha, max atom move = 2.0851e-05 0.000413886
  Iterations, force evaluations = 23 156

MPI task timing breakdown:
Section |  min time  |  avg time  |  max time  |%varavg| %total
---------------------------------------------------------------
Pair    | 0.63925    | 0.64954    | 0.66073    |   0.9 | 83.15
Neigh   | 0          | 0          | 0          |   0.0 |  0.00
Comm    | 0.0078894  | 0.019245   | 0.029716   |   5.1 |  2.46
Output  | 8.6522e-05 | 0.00010768 | 0.00016658 |   0.0 |  0.01
Modify  | 0.11038    | 0.11048    | 0.11073    |   0.0 | 14.14
Other   |            | 0.001796   |            |       |  0.23

Nlocal:    6.125 ave 7 max 6 min
Histogram: 7 0 0 0 0 0 0 0 0 1
Nghost:    939.375 ave 944 max 934 min
Histogram: 1 3 0 0 0 0 0 0 0 4
Neighs:    1699.5 ave 1939 max 1660 min
Histogram: 7 0 0 0 0 0 0 0 0 1

Total # of neighbors = 13596
Ave neighs/atom = 277.469
Neighbor list builds = 0
Dangerous builds = 0
WARNING: Using 'neigh_modify every 1 delay 0 check yes' setting during minimization (../min.cpp:190)
Setting up cg style minimization ...
  Unit style    : real
  Current step  : 82
WARNING: Energy due to 3 extra global DOFs will be included in minimizer energies
Per MPI rank memory allocation (min/avg/max) = 24.8 | 24.88 | 24.96 Mbytes
Step Temp E_pair E_mol TotEng Press Volume 
      82            0   -8734.9239            0   -8734.9239    49805.388     1331.242 
     720            0   -8749.9107            0   -8749.9107   -899.15837    1351.0999 
Loop time of 4.85998 on 8 procs for 638 steps with 49 atoms

99.0% CPU use with 8 MPI tasks x no OpenMP threads

Minimization stats:
  Stopping criterion = energy tolerance
  Energy initial, next-to-last, final = 
        -8734.92393147     -8749.91067315     -8749.91072056
  Force two-norm initial, final = 1677.69 55.3202
  Force max component initial, final = 993.237 19.9674
  Final line search alpha, max atom move = 1.06623e-07 2.12898e-06
  Iterations, force evaluations = 638 1065

MPI task timing breakdown:
Section |  min time  |  avg time  |  max time  |%varavg| %total
---------------------------------------------------------------
Pair    | 4.2281     | 4.3014     | 4.382      |   2.4 | 88.51
Neigh   | 0          | 0          | 0          |   0.0 |  0.00
Comm    | 0.054189   | 0.13565    | 0.20906    |  13.5 |  2.79
Output  | 0.001784   | 0.002201   | 0.0032692  |   0.9 |  0.05
Modify  | 0.38902    | 0.38956    | 0.39006    |   0.1 |  8.02
Other   |            | 0.03115    |            |       |  0.64

Nlocal:    6.125 ave 7 max 6 min
Histogram: 7 0 0 0 0 0 0 0 0 1
Nghost:    939.375 ave 944 max 934 min
Histogram: 1 3 0 0 0 0 0 0 0 4
Neighs:    1700 ave 1932 max 1661 min
Histogram: 7 0 0 0 0 0 0 0 0 1

Total # of neighbors = 13600
Ave neighs/atom = 277.551
Neighbor list builds = 0
Dangerous builds = 0
WARNING: Using 'neigh_modify every 1 delay 0 check yes' setting during minimization (../min.cpp:190)
Setting up cg style minimization ...
  Unit style    : real
  Current step  : 720
Per MPI rank memory allocation (min/avg/max) = 24.8 | 24.88 | 24.96 Mbytes
Step Temp E_pair E_mol TotEng Press 
     720            0   -8749.9107            0   -8749.9107   -899.15719 
     722            0   -8749.9114            0   -8749.9114    -887.0065 
Loop time of 0.13451 on 8 procs for 2 steps with 49 atoms

99.2% CPU use with 8 MPI tasks x no OpenMP threads

Minimization stats:
  Stopping criterion = energy tolerance
  Energy initial, next-to-last, final = 
        -8749.91072079     -8749.91131675     -8749.91136339
  Force two-norm initial, final = 46.0042 41.7896
  Force max component initial, final = 13.0683 11.7533
  Final line search alpha, max atom move = 1.10444e-06 1.29808e-05
  Iterations, force evaluations = 2 32

MPI task timing breakdown:
Section |  min time  |  avg time  |  max time  |%varavg| %total
---------------------------------------------------------------
Pair    | 0.11593    | 0.11719    | 0.11911    |   0.3 | 87.12
Neigh   | 0          | 0          | 0          |   0.0 |  0.00
Comm    | 0.00098172 | 0.0029114  | 0.0041663  |   2.0 |  2.16
Output  | 0          | 0          | 0          |   0.0 |  0.00
Modify  | 0.014084   | 0.014093   | 0.0141     |   0.0 | 10.48
Other   |            | 0.0003206  |            |       |  0.24

Nlocal:    6.125 ave 7 max 6 min
Histogram: 7 0 0 0 0 0 0 0 0 1
Nghost:    866.625 ave 878 max 857 min
Histogram: 1 0 3 0 0 2 1 0 0 1
Neighs:    1671.25 ave 1907 max 1632 min
Histogram: 7 0 0 0 0 0 0 0 0 1

Total # of neighbors = 13370
Ave neighs/atom = 272.857
Neighbor list builds = 0
Dangerous builds = 0
WARNING: Using 'neigh_modify every 1 delay 0 check yes' setting during minimization (../min.cpp:190)
Setting up cg style minimization ...
  Unit style    : real
  Current step  : 722
WARNING: Energy due to 3 extra global DOFs will be included in minimizer energies
Per MPI rank memory allocation (min/avg/max) = 24.8 | 24.88 | 24.96 Mbytes
Step Temp E_pair E_mol TotEng Press Volume 
     722            0   -8749.9114            0   -8749.9114    -887.0069    1351.0999 
     726            0   -8749.9121            0   -8749.9121   -371.30306    1351.0721 
Loop time of 0.0992023 on 8 procs for 4 steps with 49 atoms

99.2% CPU use with 8 MPI tasks x no OpenMP threads

Minimization stats:
  Stopping criterion = energy tolerance
  Energy initial, next-to-last, final = 
        -8749.91136325     -8749.91209922     -8749.91211837
  Force two-norm initial, final = 51.6442 39.7309
  Force max component initial, final = 19.1725 9.09984
  Final line search alpha, max atom move = 3.30845e-07 3.01064e-06
  Iterations, force evaluations = 4 24

MPI task timing breakdown:
Section |  min time  |  avg time  |  max time  |%varavg| %total
---------------------------------------------------------------
Pair    | 0.087713   | 0.088579   | 0.089897   |   0.3 | 89.29
Neigh   | 0          | 0          | 0          |   0.0 |  0.00
Comm    | 0.00067588 | 0.0020001  | 0.0028631  |   1.8 |  2.02
Output  | 0          | 0          | 0          |   0.0 |  0.00
Modify  | 0.0080321  | 0.0080382  | 0.0080484  |   0.0 |  8.10
Other   |            | 0.0005854  |            |       |  0.59

Nlocal:    6.125 ave 7 max 6 min
Histogram: 7 0 0 0 0 0 0 0 0 1
Nghost:    866.625 ave 878 max 857 min
Histogram: 1 0 3 0 0 2 1 0 0 1
Neighs:    1671.25 ave 1907 max 1632 min
Histogram: 7 0 0 0 0 0 0 0 0 1

Total # of neighbors = 13370
Ave neighs/atom = 272.857
Neighbor list builds = 0
Dangerous builds = 0
WARNING: Using 'neigh_modify every 1 delay 0 check yes' setting during minimization (../min.cpp:190)
Setting up cg style minimization ...
  Unit style    : real
  Current step  : 726
Per MPI rank memory allocation (min/avg/max) = 24.8 | 24.88 | 24.96 Mbytes
Step Temp E_pair E_mol TotEng Press 
     726            0   -8749.9121            0   -8749.9121   -371.30639 
     727            0   -8749.9122            0   -8749.9122   -371.29844 
Loop time of 0.0848863 on 8 procs for 1 steps with 49 atoms

99.3% CPU use with 8 MPI tasks x no OpenMP threads

Minimization stats:
  Stopping criterion = energy tolerance
  Energy initial, next-to-last, final = 
        -8749.91211904     -8749.91211904     -8749.91215817
  Force two-norm initial, final = 37.609 40.6379
  Force max component initial, final = 9.09984 11.2032
  Final line search alpha, max atom move = 8.3841e-08 9.39284e-07
  Iterations, force evaluations = 1 20

MPI task timing breakdown:
Section |  min time  |  avg time  |  max time  |%varavg| %total
---------------------------------------------------------------
Pair    | 0.073745   | 0.074515   | 0.075573   |   0.2 | 87.78
Neigh   | 0          | 0          | 0          |   0.0 |  0.00
Comm    | 0.00061993 | 0.0016811  | 0.0024475  |   1.6 |  1.98
Output  | 0          | 0          | 0          |   0.0 |  0.00
Modify  | 0.0083969  | 0.0084016  | 0.0084063  |   0.0 |  9.90
Other   |            | 0.0002888  |            |       |  0.34

Nlocal:    6.125 ave 7 max 6 min
Histogram: 7 0 0 0 0 0 0 0 0 1
Nghost:    866.625 ave 878 max 857 min
Histogram: 1 0 3 0 0 2 1 0 0 1
Neighs:    1671.5 ave 1907 max 1632 min
Histogram: 7 0 0 0 0 0 0 0 0 1

Total # of neighbors = 13372
Ave neighs/atom = 272.898
Neighbor list builds = 0
Dangerous builds = 0
Setting up Verlet run ...
  Unit style    : real
  Current step  : 0
  Time step     : 0.25
Per MPI rank memory allocation (min/avg/max) = 23.68 | 23.76 | 23.83 Mbytes
Step Temp TotEng KinEng PotEng Press 
       0          300   -8706.9885    42.923665   -8749.9122     1080.989 
     200    241.24324   -8689.8405    34.516813   -8724.3573    11248.068 
     400       357.24    -8663.677      51.1135   -8714.7905    23417.117 
     600    324.00676   -8669.0658    46.358525   -8715.4243   -23208.512 
     800    261.05814   -8676.1746    37.351907   -8713.5265    3912.3963 
    1000     335.9551   -8667.2059     48.06808    -8715.274   -23951.889 
    1200    248.95938   -8684.0048     35.62083   -8719.6257    13091.837 
    1400    350.36238   -8668.8887    50.129458   -8719.0181    13226.329 
    1600    352.70237   -8670.5009    50.464262   -8720.9652    23528.938 
    1800    282.77655   -8678.2364    40.459353   -8718.6957   -19573.093 
    2000    327.45688   -8669.9201    46.852165   -8716.7722   -43226.752 
    2200    214.41561    -8681.607    30.678346   -8712.2853    5119.6675 
    2400    351.13778   -8665.1285    50.240402   -8715.3689    24292.415 
    2600    288.87699   -8677.4877    41.332197   -8718.8199   -11491.029 
    2800     352.0517   -8665.5571    50.371164   -8715.9283   -2950.6288 
    3000    244.81884   -8684.6054    35.028406   -8719.6339   -604.48461 
    3200    263.39377   -8682.0461    37.686087   -8719.7322    12805.628 
    3400    304.87326   -8665.2943    43.620926   -8708.9152    9762.4891 
    3600    257.88542   -8676.9113    36.897958   -8713.8092   -21522.512 
    3800    320.93803   -8674.5312    45.919455   -8720.4507   -37674.493 
    4000    346.07718   -8664.8755    49.516336   -8714.3918   -35272.855 
    4200    371.14243   -8660.3972    53.102644   -8713.4998    9227.9196 
    4400    336.04141   -8673.2804    48.080429   -8721.3608   -22289.501 
    4600    255.19125   -8675.8434    36.512479   -8712.3559    33138.276 
    4800    265.95009   -8676.7062    38.051841    -8714.758   -26181.402 
    5000    294.01096   -8666.9078     42.06676   -8708.9746    8919.9473 
    5200    293.97293   -8678.7228    42.061318   -8720.7842    2006.7263 
    5400    256.11404   -8675.3632    36.644511   -8712.0077   -6865.1775 
    5600    374.93678   -8664.6821    53.645536   -8718.3276    27528.039 
    5800    260.29327   -8681.7603     37.24247   -8719.0028    1376.3286 
    6000    286.69834   -8670.4944    41.020478   -8711.5149    8631.7633 
    6200    321.99577   -8673.7879    46.070795   -8719.8587    40.816111 
    6400    259.00858    -8680.787    37.058658   -8717.8456    70163.422 
    6600    292.42163   -8677.4041     41.83936   -8719.2434    21583.763 
    6800    347.10027   -8665.4509    49.662719   -8715.1136    23556.948 
    7000     264.2965   -8680.7729    37.815248   -8718.5881   -31302.872 
    7200    293.71293   -8672.5789    42.024117    -8714.603   -12556.319 
    7400    298.08653   -8666.3832    42.649887   -8709.0331    4814.3778 
    7600    295.81396   -8666.8284     42.32473   -8709.1531    11037.488 
    7800     251.1821   -8677.9249    35.938854   -8713.8638    2203.4381 
    8000    331.54944   -8665.2492    47.437723   -8712.6869   -43920.255 
    8200    259.27009   -8684.0776    37.096075   -8721.1736    15306.597 
    8400    303.78602   -8675.4119    43.465364   -8718.8772   -14819.115 
    8600    298.78737   -8664.9076    42.750162   -8707.6578   -62431.995 
    8800    294.01256   -8671.1659    42.066989   -8713.2329    18241.371 
    9000    311.69001   -8675.8591    44.596258   -8720.4553   -1549.7597 
    9200    358.14784   -8664.8574    51.243392   -8716.1008     4620.333 
    9400     304.2601   -8668.0305    43.533195   -8711.5637    -3438.075 
    9600    319.05608    -8678.094    45.650187   -8723.7442    28117.261 
    9800     332.2652   -8664.5601    47.540133   -8712.1002   -10101.274 
   10000      348.751    -8657.355    49.898903   -8707.2539   -18649.586 
   10200    277.37809   -8679.4029    39.686947   -8719.0899   -22846.116 
   10400    270.94962   -8674.1685    38.767168   -8712.9357   -15170.415 
   10600    360.76418    -8665.937    51.617736   -8717.5548    38906.448 
   10800     312.1905   -8673.3929    44.667868   -8718.0608    21812.035 
   11000    268.63459   -8676.8368    38.435937   -8715.2727   -3970.1244 
   11200    325.81848   -8667.8298    46.617744   -8714.4476   -1710.8442 
   11400     336.6931   -8665.8989    48.173672   -8714.0726    12765.746 
   11600    266.49555   -8676.5804    38.129885   -8714.7103    39555.123 
   11800    345.57516    -8668.594    49.444507   -8718.0385   -23975.932 
   12000    323.02859    -8664.612    46.218569   -8710.8306   -41204.409 
   12200    269.41706   -8681.2122    38.547892   -8719.7601   -12666.859 
   12400    354.41354   -8667.9727    50.709093   -8718.6818    12374.034 
   12600    323.66001    -8665.671    46.308913     -8711.98   -60322.018 
   12800    328.13176   -8675.4229    46.948726   -8722.3716   -9760.1275 
   13000    242.35039   -8685.0899    34.675223   -8719.7651    8857.0962 
   13200    292.43552    -8676.533    41.841347   -8718.3743    68626.796 
   13400    296.75175   -8668.3294    42.458909   -8710.7883   -36913.254 
   13600    267.22963   -8685.5817    38.234917   -8723.8167   -10371.847 
   13800    291.08059    -8678.983    41.647485   -8720.6305    1559.5705 
   14000    300.09791   -8671.1963    42.937674   -8714.1339     2691.004 
   14200    333.75981   -8662.3184    47.753981   -8710.0724    25885.594 
   14400    263.40466    -8682.701    37.687644   -8720.3887   -32373.279 
   14600    283.41683   -8672.2557    40.550963   -8712.8066    22817.942 
   14800    332.97569   -8657.8614     47.64179   -8705.5032   -50223.504 
   15000      271.829    -8680.389    38.892989    -8719.282     2662.691 
   15200    327.32605   -8672.4855    46.833445    -8719.319    39731.485 
   15400    302.26877   -8667.3525    43.248278   -8710.6008   -38072.755 
   15600    274.81492   -8684.7661    39.320212   -8724.0863   -3918.7036 
   15800    253.28997   -8674.0435    36.240446   -8710.2839   -2216.7808 
   16000    343.69001   -8667.5654    49.174783   -8716.7402   -10310.725 
   16200    280.56312   -8673.0064    40.142658    -8713.149    14245.244 
   16400    275.00923   -8676.3765    39.348013   -8715.7245    56742.633 
   16600    314.86636   -8661.0653    45.050727    -8706.116     7407.736 
   16800    226.31551   -8680.4521    32.380971    -8712.833   -26578.524 
   17000    263.07062   -8673.2763     37.63985   -8710.9161    71249.835 
   17200    300.24414   -8668.7574    42.958597    -8711.716    13063.981 
   17400     252.6942   -8680.2952    36.155204   -8716.4504   -3234.7985 
   17600    337.53202   -8670.0651    48.293704   -8718.3588   -23440.975 
   17800    295.88472   -8676.6192    42.334855    -8718.954   -1838.3749 
   18000    295.10474   -8682.1504    42.223256   -8724.3737    13049.916 
   18200    294.67062   -8666.3326    42.161142   -8708.4937   -40546.846 
   18400    273.86236   -8675.6575    39.183921   -8714.8414   -35161.361 
   18600    277.17214    -8680.326    39.657481   -8719.9835    12877.442 
   18800     285.5361   -8669.5015    40.854186   -8710.3557   -29951.522 
   19000    349.08373   -8662.5907    49.946511   -8712.5372    40029.007 
   19200    297.20346    -8679.453     42.52354   -8721.9765    27070.978 
   19400    324.17437   -8678.5428    46.382506   -8724.9253     6566.196 
   19600    331.90288   -8667.0063    47.488293   -8714.4946   -47916.544 
   19800    296.54014   -8678.2306    42.428631   -8720.6592   -50846.078 
   20000    313.96361   -8665.7707    44.921562   -8710.6923   -47706.084 
   20200    295.20339   -8669.5714    42.237371   -8711.8088    30612.119 
   20400    286.19023   -8677.1867    40.947778   -8718.1345   -8859.8911 
   20600    368.67691   -8673.3103    52.749881   -8726.0602   -41116.613 
   20800     299.5547   -8673.9578    42.859952   -8716.8177     -41161.8 
   21000    255.20666   -8683.8824    36.514683   -8720.3971   -14700.085 
   21200    303.30859   -8668.3528    43.397054   -8711.7499    14548.245 
   21400    312.97484   -8676.4838    44.780091   -8721.2639    22177.993 
   21600    245.22869   -8693.4307    35.087046   -8728.5178    19727.009 
   21800     294.3403   -8683.7097    42.113882   -8725.8236   -9454.2235 
   22000     275.2136    -8670.766    39.377254   -8710.1433   -10060.334 
   22200    303.84463   -8667.3037     43.47375   -8710.7774    17438.804 
   22400    282.41622   -8680.7676    40.407798   -8721.1754    6367.1122 
   22600    283.98057   -8682.9618    40.631622   -8723.5934    9102.1735 
   22800    353.06518   -8665.9088    50.516171    -8716.425   -3351.8657 
   23000    309.66188   -8676.1337    44.306076   -8720.4398    45821.424 
   23200     266.1776   -8686.3244    38.084394   -8724.4088    1853.4949 
   23400      339.587   -8665.8904    48.587729   -8714.4781    7634.5627 
   23600    298.66562   -8674.0259    42.732743   -8716.7587    32114.976 
   23800    260.09891   -8677.5575    37.214661   -8714.7722   -32922.048 
   24000    270.44861    -8680.681    38.695485   -8719.3765   -16357.054 
   24200    305.31054   -8664.2191     43.68349   -8707.9026    -11371.33 
   24400    297.52503   -8669.6865    42.569549   -8712.2561    6016.4823 
   24600    320.90202   -8676.4955    45.914302   -8722.4098    20341.371 
   24800    317.47974   -8671.6169    45.424646   -8717.0415   -14280.276 
   25000    401.23973   -8655.6317    57.408933   -8713.0407   -31036.664 
   25200    322.30705   -8672.8551    46.115332   -8718.9704   -25433.713 
   25400    300.82437   -8675.5648    43.041614   -8718.6064    28574.434 
   25600    321.82714   -8663.3756    46.046668   -8709.4223    8596.1025 
   25800    338.47833   -8664.8063    48.429102   -8713.2354   -31964.761 
   26000    264.31996   -8678.4462    37.818604   -8716.2648   -33622.465 
   26200    347.59364   -8665.9975     49.73331   -8715.7308     289.2907 
   26400    381.69457   -8663.0985    54.612432   -8717.7109    28482.186 
   26600    309.23105   -8675.7046    44.244433    -8719.949    972.90491 
   26800    317.75425   -8668.8008    45.463923   -8714.2647   -2907.9781 
   27000     274.0182   -8682.7301    39.206219   -8721.9363   -26959.038 
   27200    329.36626   -8667.3633    47.125357   -8714.4887    -9565.923 
   27400    269.12431   -8675.8837    38.506006   -8714.3898   -53137.528 
   27600    228.32725   -8686.8092    32.668808    -8719.478   -7255.3407 
   27800    279.12832   -8676.1215    39.937367   -8716.0588   -7610.0996 
   28000    305.22141   -8667.2247    43.670738   -8710.8954   -24097.486 
   28200    266.90936   -8683.7494    38.189093   -8721.9385   -14085.606 
   28400    284.97983   -8670.5701    40.774596   -8711.3447   -31466.604 
   28600    287.41554   -8669.2883    41.123095   -8710.4114   -28447.996 
   28800     296.0184   -8681.7517    42.353982   -8724.1057   -47356.053 
   29000     297.5109    -8668.656    42.567527   -8711.2235   -36125.322 
   29200    376.06952   -8665.2679    53.807606   -8719.0755   -26442.196 
   29400    269.58069   -8679.9703    38.571304   -8718.5416   -19139.002 
   29600     316.8461   -8673.9765    45.333986   -8719.3104     25950.06 
   29800    380.79867   -8656.7095    54.484248   -8711.1938     -57390.6 
   30000    304.64495   -8669.5821    43.588258   -8713.1704    2379.1839 
   30200    300.68837   -8677.4718    43.022155    -8720.494   -5368.2252 
   30400    321.32446   -8671.3136    45.974744   -8717.2883     2205.008 
   30600     358.2561   -8662.0953    51.258883   -8713.3542    12237.736 
   30800    284.29905   -8680.6031     40.67719   -8721.2802    1570.9669 
   31000    299.48595   -8669.4075    42.850115   -8712.2576   -29118.642 
   31200    366.90972   -8664.0962    52.497033   -8716.5932   -38714.027 
   31400    310.69223   -8673.0021    44.453497   -8717.4556   -7439.8007 
   31600    285.20258    -8680.143    40.806466   -8720.9495    2708.9705 
   31800    314.63838   -8659.7576    45.018108   -8704.7757    43923.508 
   32000    305.68984   -8675.2679    43.737761   -8719.0057    42171.327 
   32200    302.75344   -8675.4325    43.317625   -8718.7502   -20719.566 
   32400    350.13099   -8659.1983    50.096351   -8709.2947   -38628.733 
   32600    245.98376   -8680.0345    35.195081   -8715.2296   -18220.434 
   32800    358.63137   -8669.0645    51.312575   -8720.3771   -18140.484 
   33000    265.12542   -8676.7905    37.933848   -8714.7244    1547.3125 
   33200    319.63001   -8683.6574    45.732304   -8729.3897     10757.37 
   33400    304.03255   -8665.0889    43.500638   -8708.5895   -13317.943 
   33600    313.42232   -8671.9087    44.844116   -8716.7528   -13086.559 
   33800    252.86782    -8683.087    36.180046    -8719.267    47182.222 
   34000    276.13237   -8676.4439    39.508711   -8715.9526    32571.136 
   34200    266.82942   -8667.0793    38.177655    -8705.257    4595.6032 
   34400    299.79076   -8673.5333    42.893726    -8716.427    -12837.91 
   34600    293.07096   -8673.3543    41.932265   -8715.2865   -13771.939 
   34800     347.8757   -8655.3562    49.773666   -8705.1299    -6454.338 
   35000    310.38054   -8667.2912    44.408901   -8711.7001    7353.3223 
   35200    293.64143    -8675.281    42.013887   -8717.2949    14901.659 
   35400    206.28256   -8691.1265    29.514678   -8720.6412   -14954.258 
   35600    303.13444   -8672.0003    43.372137   -8715.3725    50425.862 
   35800    324.82547   -8668.5631    46.475666   -8715.0388   -11720.169 
   36000     278.8446   -8680.9011    39.896774   -8720.7978   -13410.722 
   36200    326.27847   -8675.1268    46.683559   -8721.8104    23749.981 
   36400    285.95855   -8669.1217    40.914629   -8710.0363    15893.967 
   36600    308.80994   -8679.1095     44.18418   -8723.2937    3324.0957 
   36800    232.09381   -8688.4984    33.207723   -8721.7061   -26974.967 
   37000    363.79513   -8667.4791      52.0514   -8719.5305   -36636.057 
   37200    309.42605   -8671.5212    44.272333   -8715.7936    10763.113 
   37400    291.39077    -8682.272    41.691865   -8723.9638    16594.183 
   37600    318.29258   -8664.2125    45.540946   -8709.7534    33525.165 
   37800    323.35129   -8670.3731    46.264742   -8716.6379   -13186.978 
   38000    320.78602   -8678.9275    45.897705   -8724.8252    6224.3753 
   38200    322.00458   -8669.0897    46.072055   -8715.1618    17515.879 
   38400    289.94725   -8658.4987    41.485329    -8699.984   -54370.034 
   38600    297.30489   -8676.6852    42.538051   -8719.2233   -340.81044 
   38800    279.27959   -8683.7338    39.959012   -8723.6928    37329.663 
   39000    333.92597   -8666.9771    47.777754   -8714.7548   -22386.187 
   39200    346.49563   -8670.4757    49.576207   -8720.0519    36874.482 
   39400    309.13808   -8679.2234    44.231131   -8723.4546   -13758.743 
   39600    299.26331   -8673.8687    42.818259   -8716.6869   -30767.235 
   39800      297.842   -8672.1587      42.6149   -8714.7736    17735.659 
   40000    250.40644   -8661.8427    35.827873   -8697.6706    7628.0846 
   40200     274.6747   -8679.5097    39.300149   -8718.8099    29000.785 
   40400    272.70057    -8680.798    39.017693   -8719.8157    12534.256 
   40600    292.26061   -8660.6742    41.816321   -8702.4905   -14150.466 
   40800     289.8652   -8676.0969    41.473589   -8717.5705    2901.6465 
   41000    295.39581   -8676.2365    42.264902   -8718.5014   -5229.4978 
   41200    356.22291   -8662.9178    50.967976   -8713.8858    34924.281 
   41400    272.86549   -8671.7635    39.041289   -8710.8048   -11667.567 
   41600    288.55524   -8677.2202    41.286161   -8718.5064    13635.915 
   41800     345.9963   -8667.4753    49.504763   -8716.9801    8977.9307 
   42000    325.93019   -8667.4364    46.633728   -8714.0701   -794.11542 
   42200     330.8382   -8677.4421     47.33596    -8724.778    10498.597 
   42400    283.59278   -8675.4086    40.576138   -8715.9847   -33045.138 
   42600    311.23688    -8658.259    44.531425   -8702.7904   -10520.593 
   42800    303.04211   -8676.4163    43.358927   -8719.7753    39712.785 
   43000    346.12485   -8676.4034    49.523157   -8725.9265     14596.28 
   43200    355.59996   -8661.8114    50.878845   -8712.6903   -6566.9146 
   43400    265.42363   -8668.5843    37.976516   -8706.5608    19859.256 
   43600    321.99565   -8675.1641    46.070777   -8721.2349    262.03629 
   43800    300.40207   -8673.8237    42.981192   -8716.8049   -13028.744 
   44000    315.95005   -8663.0493     45.20578    -8708.255   -6734.3109 
   44200    241.02464   -8677.0433    34.485537   -8711.5288   -35180.496 
   44400    265.30691   -8677.6946    37.959816   -8715.6544    40358.674 
   44600     361.9246   -8657.1596    51.783767   -8708.9434   -43331.539 
   44800    301.45523   -8666.9537    43.131877   -8710.0855   -34784.758 
   45000    301.89664   -8678.2851    43.195033   -8721.4801   -19733.763 
   45200    297.26802   -8666.6864    42.532775   -8709.2192    32951.216 
   45400    319.14014   -8661.9075    45.662215   -8707.5697    11441.314 
   45600    330.42765   -8672.7359    47.277218   -8720.0132   -23977.236 
   45800    287.09914   -8678.7993    41.077824   -8719.8771   -14213.495 
   46000    320.63866   -8660.3396     45.87662   -8706.2162     11488.72 
   46200    303.45501   -8675.1997    43.418004   -8718.6177   -34858.914 
   46400    304.91021   -8675.6366    43.626213   -8719.2628   -15723.765 
   46600    343.53156   -8667.3798    49.152111   -8716.5319    27480.587 
   46800    329.82069   -8664.9307    47.190376   -8712.1211   -5592.0362 
   47000    320.82132   -8676.9216    45.902756   -8722.8244    21947.455 
   47200    321.85644   -8669.2342     46.05086   -8715.2851   -45695.563 
   47400    347.01906   -8658.0019      49.6511    -8707.653   -43606.486 
   47600    260.83613   -8677.1782    37.320142   -8714.4983   -26726.409 
   47800    317.18976   -8674.2212    45.383156   -8719.6044   -14351.503 
   48000    345.04492   -8660.1132    49.368642   -8709.4819   -39074.714 
   48200    262.80508   -8678.8658    37.601856   -8716.4676    50864.301 
   48400     314.6337   -8674.8066    45.017438    -8719.824   -24048.125 
   48600     349.4451   -8660.5109    49.998215   -8710.5091    26465.051 
   48800    331.14223   -8670.9169     47.37946   -8718.2963   -19313.879 
   49000    284.73159   -8676.8568    40.739077   -8717.5959   -31081.388 
   49200    331.89052   -8664.9853    47.486524   -8712.4718    -41182.54 
   49400    344.23871   -8662.7995     49.25329   -8712.0528    66089.661 
   49600    293.73394   -8678.0202    42.027124   -8720.0473    13907.428 
   49800    290.32005   -8667.0654    41.538668   -8708.6041    4110.9242 
   50000    318.49926   -8667.1678    45.570519   -8712.7383   -78.616571 
   50200    260.87093   -8673.1944    37.325121   -8710.5195   -1938.8124 
   50400    257.25313   -8670.8008     36.80749   -8707.6083   -38026.174 
   50600    263.85629   -8684.3017    37.752263   -8722.0539    -30147.43 
   50800    313.08696    -8671.907    44.796132   -8716.7032   -1951.2527 
   51000    330.12432   -8666.0918    47.233819   -8713.3257   -21544.847 
   51200    268.89512    -8685.641    38.473213   -8724.1142     30110.66 
   51400    302.70064   -8671.7084     43.31007   -8715.0185   -11456.309 
   51600    321.52527   -8665.7251    46.003476   -8711.7286    44827.125 
   51800    268.25353   -8683.5242    38.381415   -8721.9056    3851.1098 
   52000    294.50572   -8679.8958     42.13755   -8722.0333    3917.7296 
   52200    294.15228   -8666.4197    42.086979   -8708.5066   -21309.305 
   52400    327.86173   -8671.5402     46.91009   -8718.4503    -12714.41 
   52600     350.1201   -8675.6383    50.094793   -8725.7331    12639.514 
   52800    285.39629   -8673.8349    40.834182    -8714.669   -127.99638 
   53000    329.97332    -8658.022    47.212213   -8705.2342   -34981.934 
   53200    302.43569   -8671.6763    43.272161   -8714.9484    9587.7592 
   53400     270.4169   -8677.3318    38.690948   -8716.0227    17337.515 
   53600    327.87418   -8661.5488    46.911871   -8708.4607     30800.79 
   53800    287.09765   -8674.2932    41.077611   -8715.3708    52749.284 
   54000    344.60791   -8678.7606    49.306115   -8728.0667    3987.1292 
   54200    301.27401   -8664.2651    43.105949   -8707.3711    4331.9725 
   54400    350.16054   -8665.8511    50.100578   -8715.9517   -5108.0061 
   54600    320.21099   -8673.4181    45.815431   -8719.2336    31266.891 
   54800     275.2417   -8680.2652    39.381274   -8719.6465    4020.7077 
   55000    311.40646   -8666.7959    44.555688   -8711.3516   -15863.442 
   55200    359.30943   -8672.1373    51.409591   -8723.5469   -8409.1819 
   55400    334.68802   -8675.6622    47.886789    -8723.549    2877.7015 
   55600    387.84668   -8659.6194    55.492669    -8715.112    34739.462 
   55800    295.84859   -8671.2581    42.329686   -8713.5878    19712.947 
   56000    292.64466   -8677.4834     41.87127   -8719.3546   -4074.1765 
   56200    315.41648    -8670.446    45.129438   -8715.5755    19408.317 
   56400    337.35433   -8665.8849    48.268281   -8714.1532    42208.449 
   56600    291.24088   -8674.7171     41.67042   -8716.3876   -5258.8295 
   56800     288.3648   -8676.3225    41.258913   -8717.5814   -13628.828 
   57000    320.20209   -8674.1654    45.814157   -8719.9795     -12182.6 
   57200    289.15687   -8671.7572    41.372241   -8713.1294   -20139.781 
   57400    272.28373   -8682.3432    38.958051   -8721.3013    -54158.35 
   57600    380.08193   -8659.7874    54.381697   -8714.1691    60862.508 
   57800    334.05816   -8665.5394    47.796668    -8713.336    24599.807 
   58000    306.87361    -8680.078    43.907133   -8723.9852    48315.049 
   58200    329.06156   -8666.2511    47.081761   -8713.3329    35135.339 
   58400    286.75405   -8673.3916    41.028449     -8714.42   -28150.802 
   58600    336.66923   -8672.4123    48.170256   -8720.5826   -10089.941 
   58800    296.36812   -8677.1348     42.40402   -8719.5388   -8392.8912 
   59000    306.47054   -8676.6737    43.849463   -8720.5231    1811.7251 
   59200    289.79031   -8669.0876    41.462874   -8710.5504   -2558.0662 
   59400    267.17896   -8686.6898    38.227668   -8724.9175     41065.37 
   59600    302.01182   -8679.5484    43.211513   -8722.7599     1359.941 
   59800    336.27831     -8666.66    48.114325   -8714.7743    23307.235 
   60000    275.71777   -8680.5821     39.44939   -8720.0315    47855.082 
   60200    262.03635   -8684.4767    37.491867   -8721.9685    16756.211 
   60400    283.23741   -8668.5372    40.525292   -8709.0625    38749.451 
   60600    348.53542   -8655.6793    49.868059   -8705.5474    24230.022 
   60800    300.42166   -8675.8346    42.983996   -8718.8186   -34284.855 
   61000     251.9438   -8674.3889    36.047838   -8710.4367     11918.68 
   61200    324.53744   -8666.0328    46.434454   -8712.4673    23553.836 
   61400    331.48879   -8661.5087    47.429045   -8708.9377   -44661.504 
   61600    295.98343   -8678.8581    42.348978   -8721.2071    42726.189 
   61800    334.77722   -8666.6564     47.89955   -8714.5559   -3205.2474 
   62000    317.47995   -8673.0803    45.424677    -8718.505    6253.2285 
   62200    273.80744   -8685.0427    39.176063   -8724.2188    3361.6128 
   62400    322.46968    -8672.614    46.138601   -8718.7526    6361.2329 
   62600    291.36951   -8665.3369    41.688823   -8707.0257   -59845.308 
   62800    349.61581   -8659.5942    50.022639   -8709.6168   -9574.2428 
   63000    285.87155    -8678.455    40.902182   -8719.3572    5962.3552 
   63200    319.28657   -8668.9958    45.683165   -8714.6789   -22807.302 
   63400    365.96728   -8663.5802     52.36219   -8715.9424    16058.949 
   63600     296.8152   -8674.2045    42.467986   -8716.6725   -20185.317 
   63800     323.1985   -8672.9854     46.24288   -8719.2283   -12201.892 
   64000    305.89706   -8674.1496     43.76741    -8717.917    7128.1248 
   64200     258.8929   -8680.2999    37.042107    -8717.342   -14256.193 
   64400    339.00367    -8662.701    48.504267   -8711.2052    -15260.61 
   64600    233.63753    -8678.642    33.428597   -8712.0706    44874.833 
   64800    286.59419   -8679.2011    41.005576   -8720.2067   -47577.193 
   65000    360.17048   -8669.1286     51.53279   -8720.6614   -22513.196 
   65200    319.94617   -8660.3914    45.777541   -8706.1689    4020.1152 
   65400    324.60758    -8677.603     46.44449   -8724.0475    5450.7949 
   65600    273.99781   -8677.6087    39.203301    -8716.812    13595.207 
   65800    383.21411   -8663.0307    54.829846   -8717.8605     8662.185 
   66000    350.97648   -8676.5073    50.217323   -8726.7246    30817.542 
   66200    332.97447   -8668.5298    47.641616   -8716.1714    22712.684 
   66400    322.95811   -8663.2656    46.208486   -8709.4741    20159.593 
   66600    329.72935   -8674.1378    47.177307   -8721.3151   -13843.645 
   66800    260.37167    -8679.533    37.253687   -8716.7867     21596.09 
   67000    321.50057   -8664.0001    45.999943        -8710   -2026.2052 
   67200    268.78143   -8678.9603    38.456947   -8717.4172   -22589.778 
   67400    298.03795   -8670.4548    42.642937   -8713.0978    5411.2415 
   67600    363.91486   -8658.5313    52.068531   -8710.5999   -10508.724 
   67800    354.06485   -8670.5995    50.659203   -8721.2587   -36983.314 
   68000    290.21618   -8677.3575    41.523807   -8718.8813   -58748.987 
   68200    344.73342   -8657.8176    49.324072   -8707.1417    1221.5189 
   68400    324.43918    -8670.223    46.420396   -8716.6434    -27321.82 
   68600    322.88407    -8673.273    46.197892   -8719.4709   -30495.844 
   68800    263.62697   -8676.0223    37.719452   -8713.7418    7560.5014 
   69000     385.4288   -8659.7155    55.146722   -8714.8622    30644.411 
   69200    248.06505   -8675.8926    35.492871   -8711.3855   -22378.712 
   69400    312.44827   -8669.4811     44.70475   -8714.1858   -6883.7455 
   69600    347.10515    -8657.578    49.663417   -8707.2414    -12168.49 
   69800    258.71304   -8676.6671    37.016372   -8713.6835    10596.524 
   70000    289.53381   -8674.1238    41.426174     -8715.55   -3570.3312 
   70200    358.90789    -8662.309    51.352139   -8713.6612   -31041.148 
   70400     301.2309   -8671.3603    43.099781   -8714.4601    -7318.287 
   70600    311.84095   -8674.7329    44.617855   -8719.3508   -20408.708 
   70800    237.23897   -8687.0056    33.943887   -8720.9494   -4721.8508 
   71000     349.5764   -8671.2011    50.017001   -8721.2181   -13727.983 
   71200    311.82534   -8672.4377    44.615621   -8717.0533   -16606.321 
   71400     284.9692   -8682.4663    40.773074   -8723.2394   -23641.596 
   71600    305.72255   -8670.2247    43.742441   -8713.9672    71143.362 
   71800    265.03206   -8671.0735     37.92049    -8708.994    45589.493 
   72000     292.5716   -8675.3703    41.860817   -8717.2311   -39237.102 
   72200    246.30172   -8684.0895    35.240574   -8719.3301   -11380.602 
   72400    319.10155   -8667.9204    45.656693   -8713.5771   -5386.1176 
   72600     289.3791   -8670.5092    41.404038   -8711.9133   -16726.517 
   72800    304.75822   -8674.6259    43.604466   -8718.2304   -21128.454 
   73000    312.16824    -8673.923    44.664683   -8718.5877    7229.7278 
   73200    303.38437    -8667.482    43.407897   -8710.8899   -10504.106 
   73400    302.42313   -8660.2037    43.270363   -8703.4741    18788.722 
   73600    323.48129    -8676.324    46.283341   -8722.6073    8981.9243 
   73800    293.27115   -8674.6259    41.960909   -8716.5869    1526.8266 
   74000    299.60954   -8665.3634    42.867798   -8708.2312   -7143.5599 
   74200    308.70751   -8671.4402    44.169525   -8715.6098   -5106.2198 
   74400    307.83128    -8679.558    44.044156   -8723.6022   -18296.183 
   74600    289.97757   -8667.9368    41.489667   -8709.4265   -5117.2993 
   74800    327.80796   -8667.3719    46.902396   -8714.2743   -5320.3924 
   75000    287.81999    -8678.282    41.180962   -8719.4629    977.00231 
   75200    233.60849   -8688.2421    33.424442   -8721.6666    3270.6992 
   75400     285.4941   -8671.4617    40.848177   -8712.3099    23125.741 
   75600    356.44147   -8669.2102    50.999247   -8720.2094     18969.16 
   75800     286.7063   -8680.7948    41.021617   -8721.8164   -32851.523 
   76000    327.06749   -8659.4569    46.796451   -8706.2533    19556.423 
   76200     285.4946   -8672.8635    40.848248   -8713.7117   -56816.606 
   76400    282.07262    -8676.692    40.358635   -8717.0507   -25193.749 
   76600    299.53376    -8671.807    42.856955   -8714.6639    -35731.46 
   76800    355.54863   -8656.6799      50.8715   -8707.5514    9461.0222 
   77000     349.4383   -8672.3731    49.997241   -8722.3703    11671.635 
   77200    272.24789   -8684.4689    38.952924   -8723.4218   -11932.084 
   77400    293.31728   -8667.3157    41.967508   -8709.2832   -13302.387 
   77600    338.00572   -8669.9764     48.36148   -8718.3379    32311.352 
   77800    266.41939   -8678.0203    38.118989   -8716.1393    18454.578 
   78000    330.74609   -8658.7925    47.322782   -8706.1153    29893.428 
   78200    298.55317   -8670.8032    42.716653   -8713.5199   -24229.311 
   78400    258.42569   -8678.3932    36.975259   -8715.3684    3777.0201 
   78600    289.53208   -8670.7663    41.425926   -8712.1922   -593.62478 
   78800    332.43345   -8659.2338    47.564207    -8706.798     4480.005 
   79000    289.24513    -8673.436     41.38487   -8714.8209    7356.2702 
   79200    254.09775   -8678.2137    36.356022   -8714.5697   -15919.028 
   79400    394.39167   -8660.2563    56.429119   -8716.6854    6578.5852 
   79600    307.45409   -8672.7196    43.990187   -8716.7098    2883.1726 
   79800    279.72654   -8675.1814    40.022961   -8715.2044    12825.318 
   80000    243.31141   -8676.6158    34.812725   -8711.4285   -17956.287 
   80200    313.96387   -8670.2351      44.9216   -8715.1567   -27919.162 
   80400    374.40768   -8661.8294    53.569832   -8715.3993     11940.68 
   80600    275.73626   -8680.7623    39.452035   -8720.2143    27914.375 
   80800    339.72905   -8667.0114    48.608052   -8715.6195   -26640.265 
   81000    270.11032   -8669.8747    38.647083   -8708.5218   -36900.757 
   81200    249.57447   -8678.2272    35.708837    -8713.936   -25029.741 
   81400    297.33184   -8674.6437    42.541907   -8717.1856    5624.0258 
   81600    327.48903    -8671.645    46.856764   -8718.5018    9194.5767 
   81800    351.25316   -8665.5201     50.25691    -8715.777    26386.509 
   82000    224.86803   -8682.1581    32.173867    -8714.332   -13671.525 
   82200    287.62417   -8675.7086    41.152945   -8716.8615    26631.384 
   82400    287.05937   -8667.7032    41.072134   -8708.7753   -37178.798 
   82600    280.70104   -8677.2488    40.162391   -8717.4111    3163.7399 
   82800     334.0302   -8677.9854    47.792667   -8725.7781    14604.458 
   83000    338.59805   -8662.1396    48.446231   -8710.5859   -271.79798 
   83200    263.79544   -8681.2083    37.743557   -8718.9518   -22586.477 
   83400    257.74188   -8681.5965    36.877421   -8718.4739    40520.521 
   83600    314.08517   -8669.2017    44.938955   -8714.1407   -15019.647 
   83800     324.8509   -8659.5114    46.479304   -8705.9907   -4378.8082 
   84000     294.7616    -8674.848    42.174161   -8717.0221    13798.549 
   84200    297.09662   -8677.7786    42.508252   -8720.2868    -16744.78 
   84400    318.89767   -8662.4625    45.627522     -8708.09    17674.481 
   84600    319.48842   -8668.0365    45.712046   -8713.7485   -13936.317 
   84800    277.55629   -8678.4633    39.712444   -8718.1758     56703.34 
   85000    246.81326   -8683.6651    35.313766   -8718.9789    54810.569 
   85200    303.02314   -8669.5522    43.356212   -8712.9084    37304.652 
   85400    360.94462   -8667.9014    51.643552   -8719.5449   -29646.387 
   85600    247.54835   -8681.7073    35.418941   -8717.1263     3429.596 
   85800    342.98663   -8668.2109    49.074143   -8717.2851   -16015.689 
   86000    332.40386   -8672.4646    47.559973   -8720.0246    11817.692 
   86200    221.83208    -8691.625    31.739486   -8723.3645   -25904.575 
   86400    253.87521     -8690.54    36.324182   -8726.8641   -16911.281 
   86600    274.05273   -8673.7528    39.211158   -8712.9639   -10487.585 
   86800    241.08032   -8670.7547    34.493502   -8705.2482    -18092.81 
   87000    325.11129   -8681.5021     46.51656   -8728.0186   -7737.6483 
   87200    310.56834   -8672.6713     44.43577    -8717.107   -12154.245 
   87400    324.80705   -8665.5448     46.47303   -8712.0179   -296.36793 
   87600    305.50666    -8681.478    43.711552   -8725.1896   -17559.578 
   87800    328.60934   -8674.3449    47.017057   -8721.3619    -1929.774 
   88000     276.2799   -8674.9026    39.529819   -8714.4324    326.13659 
   88200     309.0558   -8658.6351    44.219359   -8702.8544   -2181.8748 
   88400    303.10325   -8677.0015    43.367674   -8720.3691   -16994.521 
   88600    285.96814     -8675.13    40.916002    -8716.046    12751.899 
   88800    365.38657   -8655.0172    52.279102   -8707.2963     36088.93 
   89000    353.83237   -8666.0494    50.625941   -8716.6754   -14884.762 
   89200    327.14926   -8676.3377    46.808151   -8723.1458    27553.867 
   89400    257.12055   -8675.6439    36.788521   -8712.4324    20965.309 
   89600    329.00212   -8663.2142    47.073256   -8710.2875   -11855.443 
   89800     272.7584   -8679.1809    39.025967   -8718.2069    23584.549 
   90000    251.28185   -8675.7424    35.953126   -8711.6955    10359.465 
   90200    324.90307   -8673.8268    46.486768   -8720.3136    23507.549 
   90400    306.04951   -8674.6511    43.789222   -8718.4403   -8051.0456 
   90600     322.5676   -8676.9614    46.152611    -8723.114    2373.8484 
   90800    301.34369   -8670.0059    43.115919   -8713.1218   -7753.0524 
   91000    330.00987   -8661.9456    47.217443   -8709.1631   -21656.194 
   91200     268.9796   -8679.4976    38.485301   -8717.9829   -3068.2934 
   91400    292.27469   -8672.8274    41.818337   -8714.6457   -442.77048 
   91600    310.19894   -8662.3505    44.382917   -8706.7335    33046.224 
   91800    307.42091    -8674.609     43.98544   -8718.5944    3523.7482 
   92000    299.03763   -8675.5785    42.785969   -8718.3645    7599.5165 
   92200    315.79604   -8675.4074    45.183744   -8720.5912    9393.9436 
   92400     327.0474   -8662.8275    46.793577   -8709.6211   -3111.4826 
   92600    296.56543   -8678.0383     42.43225   -8720.4705   -28352.932 
   92800    321.36202   -8678.3689    45.980118    -8724.349    14510.598 
   93000    299.97644   -8660.6328    42.920293   -8703.5531   -33783.743 
   93200    310.89622     -8669.28    44.482683   -8713.7627   -43633.495 
   93400    288.08582   -8673.9615    41.218998   -8715.1805    15532.796 
   93600    290.81174   -8684.0756    41.609019   -8725.6846     40302.79 
   93800    310.46965   -8668.2281     44.42165   -8712.6498    33292.017 
   94000    308.00315   -8670.6339    44.068746   -8714.7026    13786.661 
   94200    267.54939   -8682.7313    38.280668   -8721.0119    9555.2555 
   94400     291.2138    -8673.087    41.666545   -8714.7536   -16833.892 
   94600    324.95738   -8668.6787    46.494539   -8715.1732    2999.3321 
   94800    331.97739   -8656.0752    47.498953   -8703.5741   -47139.435 
   95000    320.50038   -8674.7902    45.856836    -8720.647   -30122.414 
   95200    324.98344   -8671.9733    46.498268   -8718.4716   -39700.439 
   95400    343.32082   -8657.9508     49.12196   -8707.0727   -20638.237 
   95600    295.06905   -8679.0158    42.218151    -8721.234   -29193.471 
   95800    247.36712   -8674.6934    35.393012   -8710.0864    -27156.32 
   96000    263.27567    -8665.787    37.669188   -8703.4562   -10359.627 
   96200    288.04501   -8684.1642    41.213159   -8725.3774    12352.006 
   96400    288.16535   -8671.9478    41.230377   -8713.1782   -21909.558 
   96600    315.89481   -8665.8226    45.197877   -8711.0205    -13635.51 
   96800    268.24309   -8682.6185    38.379922   -8720.9985   -27267.311 
   97000     267.0756   -8681.1301    38.212878    -8719.343     -25835.5 
   97200    281.60999   -8670.6964    40.292443   -8710.9889    20996.879 
   97400    293.60514   -8671.1038    42.008695   -8713.1125    3389.3577 
   97600    275.93869   -8683.7667       39.481   -8723.2477   -12559.218 
   97800    291.33177   -8669.2745    41.683424   -8710.9579   -29559.542 
   98000    323.38608   -8670.5336    46.269718   -8716.8033    65853.797 
   98200    284.28661   -8677.8101    40.675411   -8718.4855   -7035.5252 
   98400     248.6255   -8683.8821    35.573058   -8719.4552    36619.231 
   98600    317.59583   -8667.3076    45.441257   -8712.7489   -10635.662 
   98800    328.92114   -8673.1049    47.061669   -8720.1665   -15368.201 
   99000    259.83561   -8685.2727    37.176989   -8722.4497   -14249.412 
   99200    311.10081    -8672.623    44.511957   -8717.1349   -33739.918 
   99400    315.28806   -8667.7985    45.111064   -8712.9095     4778.271 
   99600    274.25328   -8685.4932    39.239853    -8724.733   -32535.607 
   99800    323.49786   -8671.6911    46.285712   -8717.9768   -15541.193 
  100000    284.61629   -8668.7985    40.722581   -8709.5211   -16452.089 
  100200    285.57049   -8676.8274    40.859107   -8717.6865   -24826.119 
  100400    283.97138   -8687.1689    40.630307   -8727.7992   -1124.2496 
  100600    319.58602   -8671.3792    45.726011   -8717.1053   -19177.332 
  100800    321.16474   -8667.9028    45.951892   -8713.8547   -33054.149 
  101000     284.0786   -8685.4124    40.645649    -8726.058    53986.295 
  101200    265.75427   -8675.3921    38.023824   -8713.4159   -5283.1696 
  101400    330.85173   -8671.3845    47.337896   -8718.7224   -26502.303 
  101600     251.8214   -8683.7205    36.030325   -8719.7508     25253.69 
  101800    336.37834   -8668.4908    48.128636   -8716.6194    6529.3096 
  102000    274.80688   -8672.5927    39.319061   -8711.9118    24409.322 
  102200    336.10935   -8670.8604     48.09015   -8718.9505    9479.7492 
  102400    257.13971   -8671.7176    36.791262   -8708.5088    13780.902 
  102600    272.49004   -8673.6879    38.987571   -8712.6755   -34582.215 
  102800    266.89017   -8680.9831    38.186348   -8719.1695   -19789.567 
  103000    247.63456   -8681.6461    35.431276   -8717.0773   -10098.122 
  103200    300.80873   -8670.2556    43.039377    -8713.295    -50472.07 
  103400    323.81739   -8674.4615     46.33143   -8720.7929   -9446.4163 
  103600    294.76377   -8683.7929    42.174471   -8725.9673    8720.7564 
  103800    325.82266   -8665.9845    46.618341   -8712.6028    5158.8095 
  104000    296.49947   -8670.3415    42.422813   -8712.7643    3257.5877 
  104200    314.55642   -8672.1088    45.006381   -8717.1152    17634.088 
  104400     221.9479   -8684.5407    31.756058   -8716.2968    29119.987 
  104600    332.18446     -8668.68    47.528582   -8716.2086    2931.5453 
  104800    266.32973    -8677.605     38.10616   -8715.7111    6771.2882 
  105000    287.58972   -8674.0838    41.148016   -8715.2318   -14041.922 
  105200    366.14472   -8661.5425    52.387577   -8713.9301    33058.486 
  105400    284.15267   -8676.5206    40.656246   -8717.1769   -28995.733 
  105600    302.01402   -8666.8672    43.211829   -8710.0791    8234.0239 
  105800    327.55049   -8662.3422    46.865558   -8709.2077    14037.279 
  106000    300.48395   -8675.0329    42.992908   -8718.0258    22608.653 
  106200    267.09679   -8683.2281     38.21591    -8721.444    3558.2066 
  106400    248.48369   -8682.5873    35.552769   -8718.1401   -12899.758 
  106600    317.83547   -8673.5841    45.475544   -8719.0596    4018.7274 
  106800    288.81784   -8672.2386    41.323734   -8713.5623     5587.428 
  107000    403.23392   -8659.0124    57.694259   -8716.7067     10207.08 
  107200    290.37019   -8674.4875    41.545843   -8716.0334   -16963.544 
  107400    331.36172    -8674.558    47.410865   -8721.9689    1584.4825 
  107600    252.54868   -8679.6408    36.134383   -8715.7752     31526.93 
  107800    330.25227   -8667.1369    47.252126   -8714.3891    8521.0497 
  108000    302.49984   -8676.9761     43.28134   -8720.2574   -3473.8613 
  108200    300.92445   -8677.4955    43.055934   -8720.5514    4208.4955 
  108400    319.79478   -8674.7106     45.75588   -8720.4665     24370.67 
  108600    349.50905    -8660.019    50.007364   -8710.0264   -7730.2925 
  108800    286.99143   -8673.4998    41.062413   -8714.5622   -25797.466 
  109000    299.72274   -8677.1603    42.883994   -8720.0443   -1759.3614 
  109200    303.13503    -8663.284    43.372222   -8706.6563    85274.188 
  109400    285.62075   -8671.9506    40.866298   -8712.8169    30327.351 
  109600    287.07106   -8676.9786    41.073807   -8718.0524   -11949.761 
  109800     277.6509   -8685.9282    39.725981   -8725.6542    18599.634 
  110000    296.41956   -8676.9686     42.41138     -8719.38    22003.536 
  110200    268.20632   -8669.0875    38.374661   -8707.4621    6240.0529 
  110400     305.3957   -8676.3994    43.695675   -8720.0951    28019.712 
  110600    222.29668   -8682.5847    31.805961   -8714.3907    9229.3838 
  110800     306.4672   -8667.4143    43.848985   -8711.2632   -9261.5781 
  111000     298.4606   -8674.5541     42.70341   -8717.2576    7792.2415 
  111200     259.7892   -8684.5561    37.170348   -8721.7265   -15772.308 
  111400    283.22571   -8672.7343    40.523618   -8713.2579    32056.859 
  111600    318.11078    -8665.348    45.514934   -8710.8629    -22897.36 
  111800    262.98556   -8677.7086    37.627679   -8715.3363   -25098.059 
  112000    237.69732    -8677.994    34.009467   -8712.0035   -55573.595 
  112200    319.63356    -8666.721    45.732813   -8712.4538   -55163.014 
  112400    315.41231   -8662.3061    45.128841   -8707.4349   -4676.4382 
  112600    251.73399   -8678.8768    36.017818   -8714.8947    6790.6217 
  112800    352.22922    -8665.888    50.396563   -8716.2846    9624.2617 
  113000    203.10513   -8679.8625    29.060055   -8708.9226   -16533.589 
  113200    293.79424   -8674.3144    42.035752   -8716.3502    29499.397 
  113400    252.40848   -8680.7301    36.114323   -8716.8444    23303.483 
  113600    260.52981   -8684.7011    37.276314   -8721.9774    1490.2402 
  113800    248.92932    -8679.273    35.616529   -8714.8895   -15730.142 
  114000    276.83861   -8662.9232    39.609759   -8702.5329   -11103.951 
  114200    301.20956   -8666.4708    43.096727   -8709.5675   -17741.498 
  114400    279.38256   -8679.5076    39.973745   -8719.4813   -1750.3952 
  114600    287.04459   -8666.5173    41.070019   -8707.5873    10049.099 
  114800    286.03892   -8666.8185     40.92613   -8707.7446   -6830.7644 
  115000    297.26714   -8674.9942     42.53265   -8717.5269   -42814.354 
  115200    316.71798   -8672.7137    45.315655   -8718.0294    3670.7519 
  115400    307.93753   -8680.8155    44.059358   -8724.8749   -28661.461 
  115600    304.95975   -8673.7828      43.6333   -8717.4161   -10531.946 
  115800     306.2141    -8661.517    43.812772   -8705.3297    43311.724 
  116000    417.72848   -8657.7346    59.768124   -8717.5028   -6762.8915 
  116200    269.94053   -8673.5481    38.622789   -8712.1708   -6675.8943 
  116400     339.7214   -8662.9637    48.606958   -8711.5706    50249.098 
  116600    265.14894    -8678.485    37.937214   -8716.4222    712.88583 
  116800    270.03939   -8675.6078    38.636934   -8714.2447    48289.571 
  117000    328.76843    -8672.827     47.03982   -8719.8668   -36509.535 
  117200    306.62517   -8671.7383    43.871587   -8715.6099     29604.34 
  117400    353.66195   -8670.6458    50.601556   -8721.2474     16344.06 
  117600    274.24596   -8682.4857    39.238805   -8721.7245   -13247.265 
  117800    318.80512    -8666.222     45.61428   -8711.8363   -44434.188 
  118000    269.54121    -8674.918    38.565655   -8713.4836   -30329.656 
  118200    300.64946   -8672.3549    43.016589   -8715.3715    9256.6046 
  118400    336.85236   -8660.5944     48.19646   -8708.7908    38203.407 
  118600    321.09445   -8674.0087    45.941835   -8719.9506      30571.4 
  118800    319.94373   -8678.5257    45.777191   -8724.3029     25263.15 
  119000    274.84606   -8684.6168    39.324667   -8723.9414     12965.06 
  119200    303.90709   -8667.7643    43.482687    -8711.247   -194.81126 
  119400    230.56246   -8678.9978    32.988619   -8711.9864    3710.9256 
  119600    361.63823   -8664.3852    51.742794    -8716.128    18163.595 
  119800    287.11205   -8672.1215    41.079671   -8713.2012    14846.213 
  120000    289.41635   -8677.2847    41.409368    -8718.694    11030.665 
  120200    367.92651   -8657.6113    52.642514   -8710.2539   -22509.354 
  120400    312.36438   -8677.2051    44.692747   -8721.8978    31561.862 
  120600    229.68988   -8675.8176    32.863771   -8708.6813    37878.269 
  120800        304.6   -8664.2715    43.581827   -8707.8533   -12852.573 
  121000    259.48156    -8683.432    37.126331   -8720.5583   -59828.751 
  121200    322.42942   -8670.7151    46.132841    -8716.848    2675.8016 
  121400    232.60744    -8674.042    33.281212   -8707.3232    45152.839 
  121600    237.23232    -8684.939    33.942935    -8718.882    5117.8651 
  121800    292.31209   -8669.8315    41.823688   -8711.6552   -27407.516 
  122000    291.33522   -8671.5464    41.683918   -8713.2303    8179.1788 
  122200    207.49205    -8689.947     29.68773   -8719.6347    24059.412 
  122400    294.82142   -8680.1017    42.182719   -8722.2844   -39119.677 
  122600    284.97406   -8667.7979     40.77377   -8708.5717   -7373.6121 
  122800    318.02409   -8675.3359    45.502531   -8720.8384    9499.7764 
  123000    258.49253   -8680.7684    36.984822   -8717.7532   -1246.1895 
  123200    312.98361   -8668.4239    44.781346   -8713.2053    9669.7909 
  123400      265.485   -8673.5193    37.985297   -8711.5046   -21872.663 
  123600    260.00865   -8684.7915    37.201747   -8721.9932    40169.141 
  123800    337.93956   -8667.0702    48.352015   -8715.4222    433.14998 
  124000    269.01258   -8675.4868    38.490019   -8713.9768    -7336.859 
  124200    310.89418   -8684.1344    44.482392   -8728.6168    8555.7885 
  124400    256.03332   -8678.9639    36.632962   -8715.5969   -9115.4308 
  124600     294.0569    -8669.976    42.073332   -8712.0493    10627.521 
  124800       277.07   -8678.7981    39.642865    -8718.441    33386.888 
  125000    275.84097   -8683.8961    39.467018   -8723.3632   -4728.7274 
  125200    296.91503   -8666.4978     42.48227   -8708.9801    14727.087 
  125400    290.66428   -8678.4558    41.587921   -8720.0438    6922.6692 
  125600    339.52053   -8673.6205    48.578218   -8722.1987   -13779.836 
  125800    357.40262   -8667.7023    51.136767   -8718.8391   -10441.803 
  126000     304.8583   -8677.7032    43.618784    -8721.322    -15133.61 
  126200    362.01112    -8657.942    51.796147   -8709.7382    26970.094 
  126400    295.63009   -8671.3884    42.298423   -8713.6868    11714.562 
  126600    250.94358    -8679.108    35.904727   -8715.0127   -16881.647 
  126800    315.46868   -8670.9805    45.136907   -8716.1174    82698.453 
  127000    301.97448   -8670.4035    43.206172   -8713.6097   -14705.113 
  127200    260.75819   -8685.1042    37.308991   -8722.4131   -2026.6458 
  127400    287.37791    -8668.963     41.11771   -8710.0807    19113.128 
  127600    314.15914   -8668.7275    44.949538    -8713.677    7909.6305 
  127800    210.99118   -8678.1686    30.188383    -8708.357   -37641.898 
  128000    309.87445   -8671.3655     44.33649    -8715.702    48743.886 
  128200    351.38554   -8649.0948     50.27585   -8699.3706    70420.166 
  128400    276.47309   -8667.0072    39.557461   -8706.5646   -56640.802 
  128600    268.84942   -8677.3734    38.466675   -8715.8401    -1061.741 
  128800     286.5297   -8666.0195    40.996349   -8707.0158   -9985.3497 
  129000    309.69122   -8664.3544    44.310273   -8708.6647    18303.313 
  129200    285.42788   -8679.2559    40.838702   -8720.0946    -23633.88 
  129400    306.97626    -8673.273     43.92182   -8717.1948   -16489.458 
  129600    347.10155   -8657.5377    49.662902   -8707.2006     26584.31 
  129800    346.84668    -8670.719    49.626435   -8720.3454   -13744.342 
  130000    287.25364   -8678.0945     41.09993   -8719.1944   -18929.996 
  130200    353.75071   -8656.5743    50.614256   -8707.1886    17827.357 
  130400    274.95121   -8670.0772    39.339712   -8709.4169    24353.414 
  130600    275.23817   -8677.9236     39.38077   -8717.3043   -6314.4833 
  130800       246.47   -8692.4116    35.264652   -8727.6762   -1979.8195 
  131000    299.95841   -8678.7886    42.917714   -8721.7063   -26682.305 
  131200    279.03607   -8668.9898    39.924169    -8708.914   -5279.5932 
  131400    261.11823   -8679.2822    37.360504   -8716.6427   -3558.9837 
  131600    283.94539   -8676.3739    40.626589   -8717.0005    45288.832 
  131800    303.04005   -8674.3366    43.358632   -8717.6952    1053.1036 
  132000    325.89392   -8667.9276    46.628538   -8714.5561   -4820.0115 
  132200    384.89043   -8657.7011    55.069692   -8712.7708    37565.882 
  132400    317.96198   -8676.4736    45.493644   -8721.9672     17548.96 
  132600    304.26095   -8680.3295    43.533317   -8723.8628    37241.562 
  132800    364.43702   -8663.7643    52.143241   -8715.9075    47559.775 
  133000    244.26028   -8673.9827    34.948488   -8708.9312   -1658.7842 
  133200    295.81547   -8680.9122    42.324947   -8723.2371   -37122.206 
  133400    266.31803     -8675.69    38.104486   -8713.7945   -18750.368 
  133600    355.99462   -8663.3822    50.935313   -8714.3175   -44269.097 
  133800    289.04431   -8674.6304    41.356136   -8715.9866    2194.8689 
  134000    272.91737   -8675.9752    39.048712   -8715.0239   -2531.1715 
  134200    331.42649   -8654.5716    47.420131   -8701.9918   -17412.277 
  134400    363.93183   -8669.0846    52.070959   -8721.1555   -11570.024 
  134600    283.84862   -8676.3323    40.612743   -8716.9451    10389.682 
  134800    362.49186    -8662.693     51.86493    -8714.558    49440.725 
  135000    279.73295   -8675.5446    40.023877   -8715.5685   -23388.249 
  135200    240.08855   -8686.6048    34.351601   -8720.9564   -9562.2261 
  135400    249.36906   -8686.3357    35.679446   -8722.0151   -28121.145 
  135600    274.63263   -8673.0609     39.29413    -8712.355    -3709.243 
  135800     357.0257    -8663.969    51.082838   -8715.0518    31797.768 
  136000    237.71971   -8676.6972    34.012671   -8710.7099    58927.054 
  136200    314.38928   -8672.9381    44.982466   -8717.9205    7866.2186 
  136400    287.09464   -8673.0566     41.07718   -8714.1338   -9687.5795 
  136600    282.50714   -8680.7037    40.420806   -8721.1245    53652.585 
  136800    252.73868    -8675.303    36.161568   -8711.4646   -6179.7885 
  137000    325.67268   -8669.5116    46.596883   -8716.1085    21657.103 
  137200    295.52547   -8683.5375    42.283454    -8725.821    5275.5731 
  137400    269.17475   -8675.4457    38.513222   -8713.9589   -23175.936 
  137600    329.03754   -8671.8311    47.078323   -8718.9095    54489.144 
  137800    426.91716   -8653.5924    61.082831   -8714.6752    55319.438 
  138000    255.43244   -8668.5771    36.546988   -8705.1241   -28915.623 
  138200    351.96525   -8672.8895    50.358794   -8723.2483   -13562.578 
  138400    254.29903   -8685.2262    36.384822    -8721.611    480.77998 
  138600    358.42721   -8672.7411    51.283365   -8724.0244   -54104.277 
  138800     275.9494     -8673.38    39.482531   -8712.8625   -44144.176 
  139000    283.58176   -8684.5156    40.574561   -8725.0902   -21638.525 
  139200    312.54222   -8666.6289    44.718191   -8711.3471   -18406.868 
  139400    300.58479   -8670.3597    43.007336    -8713.367    6567.6612 
  139600    238.69546   -8686.7855     34.15228   -8720.9378    7555.9344 
  139800    246.40673   -8688.5109      35.2556   -8723.7665    17665.795 
  140000    271.11225   -8673.6443    38.790438   -8712.4348   -12273.712 
  140200    382.00801   -8666.0211    54.657279   -8720.6784   -2026.8921 
  140400    294.29021   -8682.3467    42.106714   -8724.4535    24080.442 
  140600    373.78593   -8670.5838    53.480872   -8724.0647    24703.999 
  140800    263.87504   -8673.6497    37.754945   -8711.4047   -9083.5274 
  141000    290.27054   -8684.1578    41.531585   -8725.6894   -33441.177 
  141200     316.6581   -8667.8863    45.307088   -8713.1934    47499.579 
  141400    332.03905   -8667.2453    47.507776   -8714.7531    22701.414 
  141600    250.20369   -8684.6892    35.798864    -8720.488   -11875.313 
  141800    266.55136   -8678.3443     38.13787   -8716.4822    8667.6902 
  142000    339.42367   -8666.4486    48.564359   -8715.0129    15981.233 
  142200     363.9224   -8661.8434     52.06961    -8713.913    31489.998 
  142400    311.13555   -8676.6338    44.516927   -8721.1508    34126.445 
  142600    302.67275   -8666.8051    43.306079   -8710.1112    41548.088 
  142800    238.17555   -8683.4438    34.077892   -8717.5217    21448.578 
  143000    389.07859   -8666.0145    55.668929   -8721.6834   -37696.182 
  143200      348.589   -8667.3413    49.875725   -8717.2171   -5714.2819 
  143400    277.41928   -8680.9554     39.69284   -8720.6482   -17004.926 
  143600    302.48293   -8678.7137     43.27892   -8721.9926    682.30455 
  143800    324.53633   -8667.6091    46.434296   -8714.0434    1613.8854 
  144000    321.43865   -8677.8622    45.991082   -8723.8532    34523.451 
  144200    267.37896   -8689.5591    38.256282   -8727.8153    -9452.312 
  144400    353.51693   -8671.1797    50.580808   -8721.7605   -15808.068 
  144600     319.2461   -8670.3809    45.677375   -8716.0583   -20518.377 
  144800    281.70083   -8679.8993     40.30544   -8720.2047   -28758.764 
  145000     324.6912   -8671.4056    46.456453    -8717.862   -24759.618 
  145200    325.78228   -8667.1814    46.612565   -8713.7939    38333.996 
  145400    277.98929   -8683.0118    39.774396   -8722.7862    18268.014 
  145600    287.21244   -8676.5244    41.094034   -8717.6184   -14677.546 
  145800    338.02087   -8664.9905    48.363649   -8713.3541   -11079.233 
  146000     295.3785   -8674.5342    42.262425   -8716.7966   -1612.6394 
  146200      319.086   -8681.4351    45.654468   -8727.0895    42658.616 
  146400    324.51934   -8662.4468    46.431865   -8708.8786    7625.6165 
  146600    298.66861   -8670.8636    42.733171   -8713.5967    25727.746 
  146800    290.48691   -8679.2948    41.562543   -8720.8574   -10506.456 
  147000    337.04983    -8660.095    48.224713   -8708.3197    34743.341 
  147200    307.63418   -8674.9907    44.015954   -8719.0067   -26770.556 
  147400     308.4444   -8679.0967     44.13188   -8723.2286    13271.799 
  147600     346.7471   -8656.5071    49.612188   -8706.1193    2015.6762 
  147800     305.8255     -8672.26    43.757171   -8716.0172    16528.369 
  148000    289.87956   -8677.4075    41.475643   -8718.8831    26593.867 
  148200    236.04164    -8687.046    33.772573   -8720.8186    41918.211 
  148400    335.36214   -8668.2983     47.98324   -8716.2815    80947.859 
  148600    297.21554   -8671.2131    42.525268   -8713.7384    4595.2578 
  148800    303.19207   -8685.5598    43.380383   -8728.9402     17837.48 
  149000    326.92461    -8668.163    46.776007    -8714.939   -7523.2689 
  149200    279.82888   -8675.9077    40.037604   -8715.9453    12393.246 
  149400    285.76071   -8679.0138    40.886323   -8719.9001   -9619.0344 
  149600    341.84968   -8662.5059    48.911471   -8711.4173    22814.074 
  149800    267.74777   -8667.8018    38.309051   -8706.1108    66317.487 
  150000     280.4233    -8667.989    40.122652   -8708.1117   -5078.7174 
  150200    283.08677   -8680.9775    40.503738   -8721.4812    -12592.49 
  150400    318.35878   -8666.2366    45.550419    -8711.787    58281.566 
  150600    297.79155   -8669.5482    42.607682   -8712.1559    18469.975 
  150800    305.28607   -8676.2648    43.679989   -8719.9448    38255.491 
  151000     268.3632   -8673.0951    38.397107   -8711.4922   -31760.719 
  151200    286.27899   -8661.7551    40.960478   -8702.7156    1736.3397 
  151400    306.94009   -8678.3159    43.916645   -8722.2326   -18826.418 
  151600    294.61113   -8675.7257    42.152631   -8717.8784    16110.026 
  151800    300.31088   -8665.3758    42.968145   -8708.3439   -16988.687 
  152000    276.91114     -8674.59    39.620136   -8714.2101   -25680.513 
  152200    309.73518   -8673.3289    44.316563   -8717.6454    15570.625 
  152400    344.29652   -8670.1106    49.261561   -8719.3721   -35203.219 
  152600    291.61225   -8684.0651    41.723555   -8725.7886    -24732.83 
  152800    324.85246   -8667.1931    46.479526   -8713.6727   -9002.8237 
  153000    304.69709   -8669.6629    43.595719   -8713.2586   -21596.067 
  153200    304.67388   -8684.0327    43.592398   -8727.6251   -15596.037 
  153400    328.04793   -8670.3641    46.936731   -8717.3009   -11406.796 
  153600    339.99787   -8669.8963    48.646515   -8718.5428   -14593.986 
  153800    313.11025   -8678.7287    44.799464   -8723.5282    10524.712 
  154000    280.06871   -8687.1256    40.071918   -8727.1975   -1963.4438 
  154200    286.87796   -8669.2665    41.046178   -8710.3126   -30549.875 
  154400    321.56553   -8672.4612    46.009237   -8718.4705   -22104.758 
  154600    318.83404   -8680.3298    45.618418   -8725.9482   -7496.2021 
  154800    311.27678   -8670.9518    44.537134   -8715.4889    58717.968 
  155000      326.258   -8667.7151     46.68063   -8714.3958    19034.566 
  155200    273.44327   -8683.7642    39.123958   -8722.8881    43599.706 
  155400    262.08032   -8681.3782     37.49816   -8718.8763    20141.506 
  155600    279.20936   -8674.2103    39.948963   -8714.1593   -16217.859 
  155800    243.04374   -8681.7228    34.774427   -8716.4972    11254.552 
  156000    272.10458    -8680.018     38.93242   -8718.9505    13994.898 
  156200    336.21808   -8664.1503    48.105708    -8712.256   -52111.775 
  156400    245.71638   -8674.7536    35.156824   -8709.9104    23629.345 
  156600    278.60844   -8681.2942    39.862984   -8721.1572   -6463.4086 
  156800    311.59768   -8667.6398    44.583048   -8712.2228   -40913.391 
  157000    348.56941   -8665.4932    49.872922   -8715.3661    -2887.835 
  157200    246.38317   -8682.0266    35.252228   -8717.2789   -4642.9821 
  157400    306.59302   -8668.6836    43.866987   -8712.5506    547.04071 
  157600    281.26099   -8677.4132    40.242508   -8717.6557    27138.814 
  157800     282.7365    -8680.551    40.453623   -8721.0047    -9360.984 
  158000    285.28175    -8669.758    40.817793   -8710.5758   -3669.1004 
  158200    265.65217   -8674.4177    38.009215    -8712.427    19084.534 
  158400    239.55169   -8688.1311    34.274787   -8722.4058    19006.711 
  158600    279.09795   -8670.3656    39.933022   -8710.2986   -12507.386 
  158800    339.22539   -8663.2159     48.53599   -8711.7519   -8955.2424 
  159000    247.67163   -8674.6602     35.43658   -8710.0968   -31728.112 
  159200    271.16185   -8680.2526    38.797535   -8719.0502   -39687.031 
  159400    306.31268   -8664.5979    43.826876   -8708.4247   -8067.2261 
  159600    278.20691    -8682.393    39.805533   -8722.1985    2118.4648 
  159800    305.09215   -8676.5048    43.652244    -8720.157   -10391.717 
  160000    350.87644   -8663.3513    50.203009   -8713.5543    5136.7624 
  160200    288.22418   -8669.6876    41.238793   -8710.9264   -1471.3955 
  160400    282.09081   -8678.9253    40.361238   -8719.2866   -11328.665 
  160600    280.49646   -8682.6881    40.133119   -8722.8212   -27907.673 
  160800    361.65628    -8668.617    51.745376   -8720.3624    39078.951 
  161000    249.43258   -8684.3672    35.688535   -8720.0557    23578.418 
  161200    300.45927   -8676.9826    42.989376    -8719.972     3320.925 
  161400    306.86882   -8666.2932    43.906448   -8710.1997   -6412.7224 
  161600    363.80269    -8652.327    52.052482   -8704.3795   -14631.177 
  161800    312.56632   -8669.4264     44.72164    -8714.148   -31075.431 
  162000    272.46769   -8677.5995    38.984373   -8716.5838   -30757.227 
  162200    316.60073   -8662.4465    45.298878   -8707.7454   -25402.627 
  162400    377.02017   -8669.2251    53.943625   -8723.1687   -17838.935 
  162600    321.72196   -8677.8756    46.031618   -8723.9073    4584.9366 
  162800    287.53726   -8677.7511     41.14051   -8718.8916   -17836.246 
  163000    323.36551   -8665.1283    46.266776    -8711.395     1038.206 
  163200    291.56625   -8679.3041    41.716973    -8721.021   -15182.571 
  163400    268.51896   -8676.7227    38.419392    -8715.142   -13749.278 
  163600    375.60242   -8662.6953    53.740775   -8716.4361    39884.556 
  163800    275.22503   -8677.8716     39.37889   -8717.2505   -11231.954 
  164000    308.33957   -8676.7916    44.116881   -8720.9084    35940.498 
  164200    355.56542   -8660.8743    50.873903   -8711.7482    41157.423 
  164400    267.25239    -8676.654    38.238173   -8714.8922    8126.4268 
  164600    300.94086   -8677.8142    43.058281   -8720.8724    10328.194 
  164800    320.32747   -8673.5485    45.832097   -8719.3806    4177.8648 
  165000    303.25549   -8674.3126    43.389457   -8717.7021   -8393.1708 
  165200    233.90942   -8688.2343    33.467498   -8721.7018   -8835.4337 
  165400    320.74873   -8670.7737    45.892371    -8716.666    4281.6562 
  165600    272.47594   -8671.8678    38.985553   -8710.8533   -38691.215 
  165800    240.73913    -8684.582    34.444686   -8719.0267   -44720.692 
  166000    315.79672   -8667.9871    45.183842    -8713.171   -9730.6619 
  166200    284.33675   -8678.2996    40.682585   -8718.9821   -31937.959 
  166400    308.19816   -8670.5161    44.096648   -8714.6127     45051.15 
  166600    340.54276   -8662.9226    48.724478   -8711.6471    8680.0631 
  166800    263.24357   -8677.7446    37.664596   -8715.4092    26149.943 
  167000    312.64466   -8668.7243    44.732849   -8713.4572   -35669.143 
  167200    275.51396   -8672.0376    39.420229   -8711.4579   -12721.893 
  167400    324.55751   -8677.9711    46.437326   -8724.4084    1539.5305 
  167600    322.16276   -8671.4999    46.094688   -8717.5946    13565.077 
  167800    218.98669     -8686.67     31.33237   -8718.0024    1061.1644 
  168000    338.65305   -8677.6829    48.454099    -8726.137   -15015.535 
  168200    267.54586    -8675.289    38.280163   -8713.5692    33796.413 
  168400    317.17551   -8672.9626    45.381117   -8718.3437   -18143.106 
  168600    264.59611   -8676.5568    37.858115   -8714.4149   -5581.1764 
  168800    323.57703   -8672.3397     46.29704   -8718.6368   -7356.5128 
  169000    398.85939   -8662.0913    57.068356   -8719.1597    1494.0121 
  169200    268.86134    -8679.419    38.468381   -8717.8874   -3314.5384 
  169400    336.11905   -8669.7751    48.091538   -8717.8667      34663.9 
  169600    248.34833   -8685.8954    35.533401   -8721.4288   -27578.639 
  169800     300.7739   -8678.0582    43.034394   -8721.0926    7551.7642 
  170000    324.80845   -8670.4047     46.47323   -8716.8779   -18378.504 
  170200    299.99023   -8684.7851    42.922267   -8727.7074   -13823.054 
  170400    312.44056   -8666.1304    44.703647    -8710.834    33174.304 
  170600    295.66706   -8672.8493    42.303713   -8715.1531    49717.718 
  170800    326.58681   -8671.4309    46.727675   -8718.1586       -24783 
  171000    357.87285   -8665.7905    51.204047   -8716.9945   -34064.103 
  171200    268.90744    -8677.536    38.474976    -8716.011   -53469.193 
  171400    301.70266   -8673.5195     43.16728   -8716.6867   -20359.982 
  171600    300.49873   -8675.6054    42.995022   -8718.6004   -3472.5647 
  171800    331.30787   -8668.1213     47.40316   -8715.5245   -3156.3503 
  172000    322.50095   -8669.7264    46.143075   -8715.8695   -15989.757 
  172200    278.65226   -8682.5131    39.869254   -8722.3824   -18943.955 
  172400    305.57265   -8667.4981    43.720994   -8711.2191    11817.749 
  172600    323.08269   -8667.7988     46.22631   -8714.0251     16824.86 
  172800    302.77195   -8675.3301    43.320272   -8718.6504   -7692.0612 
  173000    272.96643   -8682.3048    39.055732   -8721.3605    9381.3889 
  173200    314.29698   -8671.3982     44.96926   -8716.3675    50624.102 
  173400    294.82265   -8674.8737    42.182895   -8717.0566    12735.459 
  173600     212.4277   -8687.5766    30.393918   -8717.9705    2386.0471 
  173800    283.37956   -8677.0543     40.54563   -8717.5999   -26523.545 
  174000    320.14034   -8665.1709    45.805321   -8710.9762   -40982.414 
  174200    259.46475   -8677.7395    37.123926   -8714.8634    5294.4586 
  174400    287.85149   -8677.7403    41.185469   -8718.9258    4199.1508 
  174600    373.03928   -8664.1321    53.374043   -8717.5061   -13125.606 
  174800     308.5882   -8668.2307    44.152455   -8712.3831    35739.963 
  175000    297.39523   -8679.3766    42.550977   -8721.9276   -1698.8464 
  175200    330.06523   -8666.4841    47.225365   -8713.7095   -6328.0197 
  175400    301.34063   -8673.5755    43.115481    -8716.691   -27052.598 
  175600    302.51167   -8677.2661    43.283032   -8720.5491    -31496.78 
  175800    315.27825   -8659.6955    45.109659   -8704.8051    10284.309 
  176000    283.63038   -8671.3573    40.581517   -8711.9388     2335.189 
  176200    298.62859   -8677.8643    42.727445   -8720.5918    11136.939 
  176400    361.43299   -8661.6733    51.713428   -8713.3867    548.65424 
  176600    250.56436   -8677.3456    35.850468    -8713.196    5677.9215 
  176800    291.34833   -8675.2677    41.685794   -8716.9535    52214.734 
  177000    307.44285   -8665.6087    43.988579   -8709.5973    17189.269 
  177200    300.44663   -8682.3109    42.987568   -8725.2985    6036.3407 
  177400    273.48565    -8678.618    39.130022    -8717.748     16075.04 
  177600    282.34533    -8674.239    40.397654   -8714.6367    26685.282 
  177800    302.01679   -8673.3624    43.212225   -8716.5746    47393.194 
  178000    250.87992   -8680.8762    35.895618   -8716.7718   -48671.736 
  178200     333.4198   -8665.2855    47.705333   -8712.9909   -29748.294 
  178400    262.73267   -8677.2798    37.591497   -8714.8713    8446.9163 
  178600    273.05506   -8683.5735    39.068413   -8722.6419    34779.284 
  178800    328.68972   -8670.5466    47.028558   -8717.5752   -6886.5885 
  179000      270.456   -8682.0361    38.696542   -8720.7327   -4695.2423 
  179200    263.53484     -8683.63     37.70627   -8721.3363    3746.2456 
  179400    287.07604   -8674.1243    41.074519   -8715.1989   -30587.516 
  179600    288.11388   -8670.7889    41.223012   -8712.0119    21513.444 
  179800    244.91141   -8677.1309    35.041651   -8712.1725    16811.921 
  180000     286.0545   -8672.3035    40.928357   -8713.2318   -36943.453 
  180200    300.37795    -8665.248    42.977741   -8708.2257    28666.258 
  180400    273.59253   -8681.7624    39.145313   -8720.9078    1383.4568 
  180600    240.60735   -8675.2453    34.425831   -8709.6712    -14188.31 
  180800    313.90888   -8669.1422    44.913731   -8714.0559    70173.253 
  181000     276.4503   -8682.3627    39.554199   -8721.9169     22805.42 
  181200    302.53772   -8674.9342    43.286759   -8718.2209   -26313.562 
[...]
  950000    282.05336   -8686.1405     40.35588   -8726.4964      58557.5 
  950200    351.77376   -8668.0676    50.331396    -8718.399   -6170.9789 
  950400    270.74992   -8681.7513    38.738595   -8720.4899   -7147.8553 
  950600    311.09612   -8685.0202    44.511286   -8729.5314     21942.77 
  950800    325.48262   -8672.7238    46.569689   -8719.2935   -51975.247 
  951000    323.81986   -8672.1213    46.331784   -8718.4531   -47729.189 
  951200    278.10804   -8681.9046    39.791387    -8721.696   -39593.546 
  951400    263.24898   -8685.7101     37.66537   -8723.3755   -57508.253 
  951600    318.61291   -8681.3069     45.58678   -8726.8937   -34736.681 
  951800    302.99992   -8671.4797     43.35289   -8714.8326   -15674.222 
  952000     249.3895   -8690.0887    35.682371   -8725.7711    4698.8724 
  952200    316.33761   -8682.3726    45.261232   -8727.6338    7791.7157 
  952400    265.58211   -8677.4776    37.999192   -8715.4768   -13736.448 
  952600    318.35934    -8674.181    45.550499   -8719.7315    4005.8397 
  952800     260.1946   -8687.4458    37.228352   -8724.6741    1338.9465 
  953000    333.91592   -8689.7124    47.776317   -8737.4888   -28806.468 
  953200    362.98459   -8669.8097    51.935429   -8721.7452   -15851.403 
  953400     333.8857   -8681.0486    47.771993   -8728.8206   -41134.818 
  953600     267.9219    -8688.254    38.333966   -8726.5879    12030.689 
  953800    328.33295   -8676.3468    46.977511   -8723.3243    17539.906 
  954000    329.78115   -8676.9011    47.184718   -8724.0858   -13189.917 
  954200    312.52342   -8679.1622    44.715501   -8723.8777   -23105.258 
  954400    302.75229   -8681.3489    43.317459   -8724.6663   -9405.9766 
  954600    251.69645   -8696.6726    36.012446   -8732.6851   -10324.675 
  954800     301.0983   -8682.1701    43.080808   -8725.2509   -25143.694 
  955000    320.32387   -8674.3891    45.831581   -8720.2206   -13353.337 
  955200     255.1264   -8688.6432      36.5032   -8725.1464   -1035.8041 
  955400    273.41663   -8679.8037    39.120146   -8718.9238     33690.97 
  955600    305.73044   -8672.8151     43.74357   -8716.5587    648.95937 
  955800    257.49815   -8689.2225    36.842548   -8726.0651    13578.202 
  956000    245.47166   -8688.4284    35.121811   -8723.5502   -16376.196 
  956200     299.3207   -8680.2785    42.826471    -8723.105    31228.921 
  956400    316.46177   -8677.0573    45.278996   -8722.3363    19060.123 
  956600    301.52598   -8682.5978    43.142001   -8725.7398   -30010.866 
  956800    251.91454   -8684.0268    36.043651   -8720.0705     104152.6 
  957000    265.92063   -8666.4985    38.047627   -8704.5461    36240.343 
  957200    287.64765   -8679.5409    41.156304   -8720.6972    9627.5058 
  957400    252.66112   -8685.2097     36.15047   -8721.3602   -3308.0734 
  957600    319.92925   -8679.9705    45.775119   -8725.7456   -48026.956 
  957800    298.94943    -8678.903     42.77335   -8721.6763    17463.409 
  958000    292.88456   -8688.5845    41.905596   -8730.4901   -17889.913 
  958200    244.90959   -8684.3255     35.04139   -8719.3669    -11217.32 
  958400    335.40914   -8675.9659    47.989965   -8723.9559   -27277.849 
  958600    244.77791    -8684.874     35.02255   -8719.8965   -1252.4387 
  958800    267.97369   -8686.0401    38.341377   -8724.3815   -23100.939 
  959000    353.58721   -8672.3264    50.590863   -8722.9173    11250.932 
  959200    287.69259   -8688.7111    41.162734   -8729.8738    9008.2234 
  959400    319.72174   -8683.1443    45.745429   -8728.8897    -38823.64 
  959600     366.5982   -8666.2402     52.45246   -8718.6927    44838.975 
  959800    346.64231   -8668.5875    49.597194   -8718.1847   -5991.1356 
  960000    296.05092   -8682.0039    42.358634   -8724.3625    5428.5579 
  960200    292.88241     -8685.89    41.905288   -8727.7952    19440.578 
  960400    310.94092   -8682.3493    44.489079   -8726.8384   -3328.4656 
  960600    317.40236    -8676.361    45.413575   -8721.7746    8467.5825 
  960800    306.83165   -8690.3872    43.901129   -8734.2883   -26030.438 
  961000     289.2403   -8683.1478    41.384179    -8724.532    15191.683 
  961200     300.0076   -8675.5185    42.924752   -8718.4433   -19634.258 
  961400    260.17236   -8689.6371     37.22517   -8726.8623    9098.1933 
  961600    299.33851   -8683.3633     42.82902   -8726.1923    12629.968 
  961800    251.47169   -8678.4603    35.980288   -8714.4406     28345.25 
  962000    305.27677   -8683.1289    43.678659   -8726.8076    1553.3809 
  962200    245.07085   -8693.5888    35.064463   -8728.6533     45539.84 
  962400    336.94813   -8676.5827    48.210162   -8724.7929   -14861.324 
  962600    301.70518   -8681.6376     43.16764   -8724.8052    21359.354 
  962800    297.63692   -8690.4461    42.585558   -8733.0316    35194.073 
  963000    264.25933   -8682.9736    37.809929   -8720.7835   -8697.1517 
  963200    336.67928   -8671.9705    48.171695   -8720.1422   -32205.162 
  963400    294.26204   -8686.6096    42.102685   -8728.7123    24120.691 
  963600    280.44694   -8681.4632    40.126035   -8721.5893    32912.288 
  963800    315.36553   -8680.1852    45.122148   -8725.3073   -36174.675 
  964000     315.9791   -8678.1531    45.209937    -8723.363    6711.1731 
  964200    333.26408    -8677.703    47.683052    -8725.386     45227.81 
  964400      302.665   -8679.9517    43.304969   -8723.2567    13254.124 
  964600     280.4488   -8686.6092    40.126301   -8726.7355    30394.575 
  964800    335.50958   -8685.9214    48.004335   -8733.9258    -16763.27 
  965000    302.81464   -8672.6746     43.32638   -8716.0009   -26714.222 
  965200    275.12213    -8689.923    39.364167   -8729.2871    8627.5446 
  965400    263.68332   -8685.7792    37.727514   -8723.5067   -7623.1056 
  965600    288.08093   -8675.0816    41.218298   -8716.2999    -48722.92 
  965800    266.77455   -8687.4386    38.169804   -8725.6084    624.77965 
  966000    323.24666   -8679.8035    46.249771   -8726.0533   -27752.549 
  966200    249.17427   -8674.5958    35.651576   -8710.2474    -25547.68 
  966400    289.11393   -8687.1115    41.366098   -8728.4776    6487.4135 
  966600    215.25204   -8699.7171    30.798021   -8730.5151   -3883.5117 
  966800    271.26788   -8684.7331    38.812706   -8723.5458   -25463.926 
  967000    288.56783   -8675.4743    41.287963   -8716.7623    3976.3142 
  967200    345.65904   -8667.3051    49.456509   -8716.7616    25820.074 
  967400    325.30387   -8683.3501    46.544115   -8729.8942    -17545.15 
  967600     309.0118   -8681.7936    44.213063   -8726.0066   -384.29701 
  967800    332.79064   -8665.4237    47.615314    -8713.039    23922.342 
  968000    352.91599   -8682.9374    50.494825   -8733.4323    23104.443 
  968200    375.08566   -8678.9783    53.666837   -8732.6451   -39738.402 
  968400    320.14962   -8673.5024    45.806649    -8719.309   -13423.304 
  968600     269.5489   -8688.2167    38.566755   -8726.7835    2256.5569 
  968800    371.72953   -8674.7015    53.186645   -8727.8882   -24771.108 
  969000    266.79971   -8682.6745    38.173404   -8720.8479   -73325.022 
  969200    338.18488   -8682.0253    48.387115   -8730.4125    -25370.67 
  969400    261.15053   -8693.4431    37.365126   -8730.8082   -12369.882 
  969600    311.82278   -8676.2303    44.615254   -8720.8455   -11728.354 
  969800    300.40591   -8676.8374    42.981742   -8719.8192   -5256.8234 
  970000    290.58913   -8678.4899    41.577168    -8720.067    -4649.322 
  970200    266.96741   -8688.5614    38.197399   -8726.7588    22782.341 
  970400     366.0963   -8674.0458    52.380649   -8726.4264    19036.986 
  970600    298.33905   -8679.6464    42.686018   -8722.3324   -4396.3014 
  970800     250.6269    -8695.317    35.859416   -8731.1764   -30667.385 
  971000    269.44798   -8680.1901    38.552315   -8718.7424   -29678.982 
  971200    308.71289   -8680.4974    44.170295   -8724.6677    5094.1183 
  971400     275.4297   -8683.4455    39.408173   -8722.8537     22892.98 
  971600    293.95417   -8678.7043    42.058634   -8720.7629    6920.9046 
  971800    312.74551   -8682.2243    44.747278   -8726.9716      -4029.2 
  972000    259.57015   -8693.4253    37.139007   -8730.5643    45601.675 
  972200    321.51631   -8678.2352    46.002194   -8724.2373    -14820.35 
  972400    282.70868   -8683.2422    40.449642   -8723.6918   -24910.367 
  972600    372.94562   -8662.9325    53.360642   -8716.2932   -3977.8994 
  972800    298.83843   -8677.0139    42.757469   -8719.7713   -22366.078 
  973000    281.62889   -8681.4953    40.295147   -8721.7905   -16278.558 
  973200    275.32836    -8684.347    39.393675   -8723.7407    30200.993 
  973400    288.17703   -8686.8025    41.232047   -8728.0345    20847.051 
  973600    287.37809   -8675.5477    41.117735   -8716.6655    29946.958 
  973800     304.7408    -8686.566    43.601973    -8730.168      30096.6 
  974000      206.978   -8692.9786     29.61418   -8722.5927   -11358.026 
  974200    315.84321   -8676.8434    45.190494   -8722.0339   -31529.789 
  974400    283.14642   -8679.3817    40.512273    -8719.894    7914.7432 
  974600    272.45196   -8688.0554    38.982122   -8727.0375   -21608.388 
  974800    273.24905   -8686.2608    39.096168   -8725.3569    14459.747 
  975000    279.41938   -8676.8843    39.979013   -8716.8633    9636.4694 
  975200    306.97826   -8677.5892    43.922106   -8721.5113    7424.9764 
  975400    223.86992   -8695.0473    32.031058   -8727.0783    6080.5608 
  975600     289.1459   -8682.0138    41.370672   -8723.3845   -10154.269 
  975800    317.90165   -8674.9146    45.485013   -8720.3996   -6004.8811 
  976000    247.96164   -8688.7029    35.478074   -8724.1809    4781.0069 
  976200    277.43128    -8684.521    39.694558   -8724.2156    32168.006 
  976400    332.62055   -8668.0277    47.590977   -8715.6187   -31263.343 
  976600    332.33946   -8673.5937    47.550759   -8721.1444   -12127.737 
  976800    297.95373   -8688.8707    42.630886   -8731.5016    -572.4638 
  977000    291.94835   -8678.3265    41.771643   -8720.0981   -29182.378 
  977200     305.7315   -8670.3205    43.743722   -8714.0642   -14916.076 
  977400    284.66964   -8686.3399    40.730215   -8727.0701   -7352.9468 
  977600    300.12054   -8676.6755    42.940912   -8719.6164    1209.9319 
  977800    327.03098   -8677.1684    46.791227   -8723.9597     17160.42 
  978000    288.12557   -8683.3274    41.224685    -8724.552   -39187.526 
  978200    303.54685   -8684.4219    43.431144    -8727.853    25360.422 
  978400     270.2851   -8676.0209     38.67209    -8714.693   -17528.914 
  978600    291.76902   -8677.0103    41.745986   -8718.7563   -13538.195 
  978800    256.70822   -8686.2072    36.729526   -8722.9368   -40602.321 
  979000    312.37608   -8679.6537    44.694421   -8724.3481   -95.957356 
  979200    341.46674   -8671.0727     48.85668   -8719.9294    12105.846 
  979400    279.48722   -8675.8288    39.988719   -8715.8175    4239.7226 
  979600    306.28282   -8686.5442    43.822604   -8730.3668   -1214.8071 
  979800    348.10924   -8670.7131     49.80708   -8720.5202   -1394.9096 
  980000    327.66876   -8671.2734    46.882479   -8718.1559   -15841.886 
  980200    262.97691   -8683.6872    37.626443   -8721.3136   -21217.363 
  980400    311.80485    -8675.055    44.612689   -8719.6677    18746.826 
  980600    385.52907   -8673.2305    55.161068   -8728.3916    29529.663 
  980800    319.98402     -8684.12    45.782956   -8729.9029   -7284.8698 
  981000    285.08318   -8679.0595    40.789382   -8719.8489    13215.238 
  981200    323.63581   -8667.2843    46.305449   -8713.5898    -13369.45 
  981400     282.2833   -8681.5403     40.38878    -8721.929   -13604.259 
  981600    330.27128   -8675.5493    47.254845   -8722.8041    48696.271 
  981800    252.02462   -8688.3065    36.059401   -8724.3659    33121.312 
  982000    291.84574   -8688.1026    41.756962   -8729.8596    11160.124 
  982200     295.4298   -8673.0107    42.269766   -8715.2805   -16301.018 
  982400    281.01555    -8687.022    40.207391   -8727.2294    20625.006 
  982600    302.27806   -8674.2144    43.249606    -8717.464    10456.705 
  982800     331.2365   -8674.3522    47.392948   -8721.7452   -8125.6446 
  983000    295.88799   -8682.7977    42.335323    -8725.133    -10804.77 
  983200    291.06288     -8667.99    41.644951   -8709.6349    -6258.819 
  983400    277.92022   -8683.8168    39.764514   -8723.5813   -16839.223 
  983600    292.29231   -8684.0258    41.820857   -8725.8467   -11416.521 
  983800    291.14604   -8676.7064     41.65685   -8718.3633   -24353.043 
  984000    325.72511   -8673.1578    46.604385   -8719.7622    38417.243 
  984200    279.94458   -8682.7568    40.054158    -8722.811    9047.3782 
  984400    317.25306   -8671.9122    45.392214   -8717.3044    -22925.92 
  984600    358.54571   -8667.8982    51.300319   -8719.1985   -8690.4645 
  984800    274.12584   -8682.6422    39.221619   -8721.8638    11156.511 
  985000    300.78776   -8676.1433    43.036377   -8719.1796    27556.073 
  985200    342.68233   -8662.6005    49.030605   -8711.6311   -5210.2671 
  985400    244.51633   -8684.6928    34.985123   -8719.6779     7694.954 
  985600    303.02696   -8678.7573    43.356759    -8722.114    7476.4453 
  985800     306.8916    -8668.972    43.909707   -8712.8817   -39588.494 
  986000    252.47512   -8686.5834    36.123858   -8722.7072    -34120.89 
  986200    295.35745   -8676.0918    42.259414   -8718.3512    5821.6138 
  986400    237.61331   -8688.1974    33.997447   -8722.1948    4415.4122 
  986600    259.33137    -8684.297    37.104843   -8721.4019   -14982.745 
  986800    356.47372   -8669.9784    51.003861   -8720.9823    44151.433 
  987000    242.39759   -8681.6648    34.681977   -8716.3468    6205.5923 
  987200    261.08449   -8693.4249    37.355677   -8730.7806    20841.397 
  987400    305.21053   -8679.5873    43.669182   -8723.2564   -12672.657 
  987600    307.22546   -8677.7765    43.957475    -8721.734   -24669.032 
  987800    246.14728   -8694.7406    35.218478   -8729.9591    7473.5962 
  988000    312.80555   -8685.2429    44.755868   -8729.9988   -19252.602 
  988200    324.63999   -8681.0254    46.449127   -8727.4745   -1169.2559 
  988400    311.12316   -8671.3414    44.515154   -8715.8566   -29621.689 
  988600    299.18108   -8670.8034    42.806495   -8713.6099    8066.7007 
  988800    286.35854   -8682.6392     40.97186   -8723.6111   -28441.411 
  989000    285.98089   -8683.6423    40.917827   -8724.5601    2388.2628 
  989200    331.46085   -8673.9612    47.425047   -8721.3862    7251.0949 
  989400    286.52211   -8681.2067    40.995263    -8722.202   -31002.971 
  989600    273.90664   -8687.9058    39.190256   -8727.0961   -28511.914 
  989800    279.54415   -8679.2059    39.996865   -8719.2027   -48101.227 
  990000    316.84884   -8676.5078    45.334378   -8721.8422     1531.757 
  990200    302.39854   -8685.4116    43.266846   -8728.6785   -10350.549 
  990400    332.99804   -8675.3939    47.644987   -8723.0389   -1902.3518 
  990600    362.77243    -8672.896    51.905075    -8724.801   -2911.4961 
  990800    298.67897   -8688.1554    42.734654   -8730.8901    7750.2209 
  991000    354.81028    -8676.113    50.765858   -8726.8789   -18266.513 
  991200    354.69414   -8675.9686    50.749242   -8726.7178    21349.169 
  991400      316.883   -8682.1652    45.339266   -8727.5044     7070.105 
  991600    344.54393   -8664.0888    49.296961   -8713.3858    41464.691 
  991800    308.53715   -8676.6941    44.145151   -8720.8392    14733.882 
  992000    304.29715    -8686.367    43.538496   -8729.9055   -15194.013 
  992200    234.78831    -8690.014    33.593248   -8723.6072    -24157.25 
  992400    289.13173   -8675.0992    41.368645   -8716.4678    22078.649 
  992600    293.47836   -8684.9431    41.990556   -8726.9336    1006.3279 
  992800    259.44335   -8687.3903    37.120864   -8724.5111   -18185.242 
  993000    367.11744   -8668.6813    52.526753   -8721.2081    -43753.97 
  993200    307.82233   -8682.4935    44.042876   -8726.5364    10556.747 
  993400    288.94907    -8683.323    41.342511   -8724.6656    -10795.69 
  993600    294.23025   -8679.5421    42.098136   -8721.6402    53757.206 
  993800    288.38911   -8680.8508    41.262391   -8722.1132    31593.642 
  994000    289.68857   -8684.9299    41.448316   -8726.3782   -2955.4026 
  994200    289.70544   -8683.0256    41.450731   -8724.4763    5757.5852 
  994400    323.39149   -8672.9772    46.270493   -8719.2477    26905.477 
  994600    278.38697   -8689.1288    39.831297   -8728.9601   -34652.536 
  994800    368.85773   -8675.4862    52.775752   -8728.2619    3257.9168 
  995000    315.01064   -8674.7899     45.07137   -8719.8612    29620.675 
  995200    272.12978   -8688.3475    38.936025   -8727.2835   -14402.993 
  995400    292.27981   -8676.4373    41.819068   -8718.2564   -51027.075 
  995600    279.06617   -8676.5929    39.928475   -8716.5214   -21637.643 
  995800    277.76151   -8686.8137    39.741806   -8726.5555   -20798.049 
  996000     212.9432   -8697.2489    30.467675   -8727.7165   -22260.766 
  996200    288.46171   -8680.2441    41.272779   -8721.5169   -1588.9509 
  996400    306.68785   -8675.5425    43.880554    -8719.423   -14299.338 
  996600    245.11696   -8692.6325    35.071061   -8727.7036    -19330.56 
  996800    283.94703   -8678.8716    40.626823   -8719.4984   -20943.494 
  997000     348.1497   -8675.5453     49.81287   -8725.3581   -11839.516 
  997200    243.50885   -8688.3414    34.840974   -8723.1824    11223.578 
  997400    350.12343   -8673.7144    50.095269   -8723.8096    11866.148 
  997600    332.71209   -8674.2595    47.604074   -8721.8636   -23399.317 
  997800     261.7534   -8687.5844    37.451383   -8725.0358    14127.598 
  998000    301.81314   -8680.6557    43.183087   -8723.8388   -25695.545 
  998200    316.25394   -8677.3245     45.24926   -8722.5738   -18182.086 
  998400    296.33177   -8688.3281    42.398818   -8730.7269     22583.93 
  998600     268.2475   -8682.0216    38.380552   -8720.4021    9700.1488 
  998800    276.09956   -8676.0265    39.504017   -8715.5305    20915.661 
  999000    266.85215   -8687.7775    38.180907   -8725.9584   -18588.931 
  999200    288.04029    -8696.159    41.212483   -8737.3715    11022.367 
  999400     313.0522   -8678.2818    44.791159    -8723.073    14896.615 
  999600    333.96403   -8673.0298      47.7832    -8720.813    -39798.95 
  999800    339.13609   -8680.4594    48.523212   -8728.9826   -23937.222 
 1000000    288.22161    -8688.097    41.238426   -8729.3354   -36243.283 
Loop time of 3986.77 on 8 procs for 1000000 steps with 49 atoms

Performance: 5.418 ns/day, 4.430 hours/ns, 250.829 timesteps/s
99.3% CPU use with 8 MPI tasks x no OpenMP threads

MPI task timing breakdown:
Section |  min time  |  avg time  |  max time  |%varavg| %total
---------------------------------------------------------------
Pair    | 3512.9     | 3556.4     | 3600.1     |  41.8 | 89.21
Neigh   | 0.3874     | 0.39472    | 0.40689    |   1.0 |  0.01
Comm    | 54.023     | 96.827     | 139.25     | 248.7 |  2.43
Output  | 0.11894    | 0.12903    | 0.195      |   6.9 |  0.00
Modify  | 328.91     | 330.05     | 331.05     |   4.2 |  8.28
Other   |            | 2.956      |            |       |  0.07

Nlocal:    6.125 ave 7 max 6 min
Histogram: 7 0 0 0 0 0 0 0 0 1
Nghost:    847.75 ave 851 max 842 min
Histogram: 1 0 0 2 0 1 0 0 1 3
Neighs:    1660.75 ave 1902 max 1620 min
Histogram: 7 0 0 0 0 0 0 0 0 1

Total # of neighbors = 13286
Ave neighs/atom = 271.143
Neighbor list builds = 194
Dangerous builds = 0

Please see the log.cite file for references relevant to this simulation

Total wall time: 1:06:34
