ITEM: TIMESTEP
0
ITEM: NUMBER OF ATOMS
161
ITEM: BOX BOUNDS xy xz yz pp pp pp
-6.7755000000000001e+00 1.3552000000000000e+01 -6.7755000000000001e+00
0.0000000000000000e+00 1.1735510246683001e+01 0.0000000000000000e+00
0.0000000000000000e+00 2.2149999999999999e+01 0.0000000000000000e+00
ITEM: ATOMS id type x y z 
8 1 -2.486 5.297 9.849 
87 1 3.001 4.231 10.696 
90 1 2.733 5.481 9.824 
109 1 -2.486 5.297 0.765 
158 1 2.733 5.481 0.79 
11 1 4.24 4.139 20.131 
14 1 3.031 4.094 19.728 
18 1 1.299 5.827 18.554 
33 1 2.266 4.151 20.924 
43 1 4.343 3.96 21.647 
47 1 3.32 5.732 17.88 
52 1 4.24 4.139 12.633 
76 1 2.552 4.924 14.209 
85 1 4.343 3.96 11.117 
89 1 3.32 5.732 14.883 
91 1 1.036 5.037 11.84 
102 1 3.031 4.094 13.035 
105 1 1.299 5.827 14.209 
114 1 2.266 4.151 11.84 
150 1 2.552 4.924 18.554 
156 1 3.001 4.231 22.068 
159 1 1.036 5.037 20.924 
5 1 -5.049 10.63 8.653 
9 1 -3.317 8.897 7.479 
19 1 -1.707 7.414 10.572 
21 1 -2.66 8.795 10.993 
23 1 -3.31 7.532 6.805 
25 1 -4.284 10.573 9.849 
32 1 1.503 6.367 0.79 
36 1 -1.869 7.426 9.056 
38 1 -2.209 6.086 8.653 
54 1 0.3 8.576 10.696 
57 1 1.291 8.001 9.824 
60 1 -1.707 7.414 0.042 
65 1 -3.31 7.532 3.808 
78 1 -1.869 7.426 1.558 
80 1 -2.566 8.842 1.961 
84 1 -4.57 9.799 3.135 
99 1 -3.054 9.687 0.765 
100 1 -2.96 6.142 3.135 
107 1 -5.049 10.63 1.961 
110 1 -3.317 8.897 3.135 
111 1 0.642 5.929 10.696 
113 1 1.503 6.367 9.824 
119 1 -4.284 10.573 0.765 
127 1 -2.209 6.086 1.961 
131 1 -2.318 6.148 10.993 
138 1 1.291 8.001 0.79 
142 1 -2.566 8.842 8.653 
145 1 -4.57 9.799 7.479 
151 1 -5.019 10.493 10.993 
154 1 -3.054 9.687 9.849 
155 1 -2.96 6.142 7.479 
12 1 2.53 7.1 17.202 
17 1 0.468 9.427 20.924 
24 1 -3.52 8.357 11.865 
27 1 -0.31 7.31 21.647 
29 1 0.642 5.929 22.068 
31 1 1.292 7.192 17.88 
44 1 -0.148 7.298 20.131 
46 1 0.191 8.638 19.728 
51 1 -0.31 7.31 11.117 
53 1 2.53 7.1 15.561 
56 1 1.292 7.192 14.883 
63 1 -2.318 6.148 21.771 
66 1 -3.309 6.723 20.899 
70 1 -0.148 7.298 12.633 
72 1 0.548 5.882 13.035 
92 1 0.942 8.582 14.209 
95 1 -5.019 10.493 21.771 
98 1 -4.751 9.243 20.899 
104 1 0.468 9.427 11.84 
116 1 -2.66 8.795 21.771 
118 1 -3.52 8.357 20.899 
122 1 0.191 8.638 13.035 
133 1 -3.309 6.723 11.865 
136 1 0.3 8.576 22.068 
147 1 0.548 5.882 19.728 
153 1 -4.751 9.243 11.865 
160 1 0.942 8.582 18.554 
1 1 7.976 4.694 10.572 
4 1 9.274 4.77 10.993 
20 1 8.034 4.861 9.056 
42 1 9.55 5.41 7.479 
67 1 10.043 4.578 0.765 
77 1 7.976 4.694 0.042 
94 1 8.035 4.861 1.558 
96 1 9.278 4.635 1.961 
121 1 4.688 5.417 10.696 
130 1 9.55 5.41 3.135 
134 1 10.043 4.578 9.849 
152 1 9.278 4.635 8.653 
45 1 4.688 5.417 22.068 
55 1 4.788 5.329 13.035 
106 1 9.274 4.77 21.771 
137 1 4.788 5.329 19.728 
2 1 7.294 10.585 9.056 
3 1 9.004 7.624 6.127 
6 1 8.556 6.347 6.805 
16 1 2.314 8.72 0.79 
22 1 7.166 6.156 8.653 
26 1 7.226 8.565 7.479 
35 1 7.191 10.764 10.572 
37 1 6.846 9.307 10.993 
39 1 8.214 8.992 6.805 
41 1 6.677 7.002 9.849 
48 1 3.775 6.213 0.79 
61 1 7.294 10.585 1.558 
62 1 9.004 7.624 4.487 
64 1 6.747 9.395 1.961 
68 1 7.437 6.931 3.135 
71 1 4.29 8.493 10.696 
74 1 3.567 7.818 9.824 
81 1 8.556 6.347 3.808 
83 1 6.47 8.606 0.765 
93 1 7.191 10.764 0.042 
97 1 8.214 8.992 3.808 
101 1 2.261 9.954 10.696 
103 1 2.314 8.72 9.824 
117 1 7.166 6.156 1.961 
120 1 7.226 8.565 3.135 
123 1 3.775 6.213 9.824 
129 1 6.677 7.002 0.765 
132 1 6.747 9.395 8.653 
135 1 7.437 6.931 7.479 
141 1 7.244 6.231 10.993 
144 1 6.47 8.606 9.849 
148 1 3.567 7.818 0.79 
161 2 5.16 9.52 10.591 
7 1 9.22 6.004 11.865 
10 1 3.558 10.029 21.647 
13 1 2.261 9.954 22.068 
15 1 2.978 8.376 17.88 
28 1 3.5 9.862 20.131 
30 1 4.369 8.568 19.728 
34 1 4.308 6.159 18.554 
40 1 7.76 8.511 11.865 
49 1 4.857 7.722 20.924 
50 1 1.984 9.314 18.554 
58 1 1.491 10.146 11.84 
59 1 4.097 7.793 14.209 
69 1 3.558 10.029 11.117 
73 1 2.978 8.376 14.883 
75 1 5.064 6.118 11.84 
79 1 7.244 6.231 21.771 
82 1 7.967 6.906 20.899 
86 1 3.5 9.862 12.633 
88 1 2.256 10.089 13.035 
108 1 9.22 6.004 20.899 
112 1 4.369 8.568 13.035 
115 1 4.308 6.159 14.209 
124 1 4.857 7.722 11.84 
125 1 1.984 9.314 14.209 
126 1 6.846 9.307 21.771 
128 1 7.76 8.511 20.899 
139 1 1.491 10.146 20.924 
140 1 4.097 7.793 18.554 
143 1 7.967 6.906 11.865 
146 1 4.29 8.493 22.068 
149 1 5.064 6.118 20.924 
157 1 2.256 10.089 19.728 
ITEM: TIMESTEP
10
ITEM: NUMBER OF ATOMS
161
ITEM: BOX BOUNDS xy xz yz pp pp pp
-6.7755000000000001e+00 1.3552000000000000e+01 -6.7755000000000001e+00
0.0000000000000000e+00 1.1735510246683001e+01 0.0000000000000000e+00
0.0000000000000000e+00 2.2149999999999999e+01 0.0000000000000000e+00
ITEM: ATOMS id type x y z 
8 1 -2.40299 5.36007 9.85098 
87 1 2.9727 4.24609 10.6077 
90 1 2.61625 5.5397 9.76723 
109 1 -2.40636 5.3729 0.768056 
158 1 2.65311 5.46751 0.847282 
11 1 4.30443 4.18893 20.1348 
14 1 2.90795 4.1321 19.6846 
18 1 1.34872 5.84419 18.5855 
33 1 2.13453 4.20598 20.8872 
43 1 4.33459 4.14418 21.575 
47 1 3.24478 5.78972 17.8295 
52 1 4.30823 4.17737 12.6141 
76 1 2.44071 4.92663 14.1804 
85 1 4.30981 4.14886 11.1977 
89 1 3.22607 5.79062 14.9203 
91 1 0.99565 5.0421 11.8691 
102 1 2.90791 4.12578 13.0887 
105 1 1.35306 5.85812 14.1744 
114 1 2.13993 4.19594 11.8783 
150 1 2.44278 4.92531 18.5894 
156 1 2.96329 4.23506 22.1417 
159 1 0.996478 5.05443 20.9089 
5 1 -4.91188 10.5896 8.62731 
9 1 -3.34432 8.87488 7.52052 
19 1 -1.75016 7.48837 10.5579 
21 1 -2.61334 8.75102 10.8633 
23 1 -3.30674 7.54498 6.84514 
25 1 -4.15721 10.5018 9.80698 
32 1 1.6115 6.34072 0.761693 
36 1 -1.90436 7.52421 9.06837 
38 1 -2.16408 6.20871 8.62672 
54 1 0.294969 8.52185 10.6663 
57 1 1.3767 7.95133 9.78555 
60 1 -1.75957 7.47674 0.0522411 
65 1 -3.29929 7.53308 3.78666 
78 1 -1.90766 7.53261 1.55282 
80 1 -2.55222 8.78125 1.85367 
84 1 -4.46952 9.81063 3.10512 
99 1 -2.99378 9.63306 0.797228 
100 1 -2.90281 6.2555 3.16336 
107 1 -4.93219 10.5967 2.00652 
110 1 -3.3606 8.89375 3.08367 
111 1 0.583112 5.96596 10.8741 
113 1 1.49267 6.35967 9.86825 
119 1 -4.14835 10.5124 0.788268 
127 1 -2.1664 6.20854 1.97161 
131 1 -2.32707 6.21494 11.0278 
138 1 1.34718 8.00213 0.81081 
142 1 -2.54846 8.78099 8.78442 
145 1 -4.44928 9.81459 7.51649 
151 1 -5.02141 10.4303 11.043 
154 1 -3.00702 9.65353 9.83394 
155 1 -2.93045 6.26942 7.43692 
12 1 2.58257 7.08526 17.1412 
17 1 0.390127 9.3522 20.9258 
24 1 -3.61406 8.37105 11.8274 
27 1 -0.270087 7.25013 21.6385 
29 1 0.591883 5.97054 21.9312 
31 1 1.29008 7.1816 17.9156 
44 1 -0.128132 7.22175 20.1442 
46 1 0.146863 8.52361 19.7151 
51 1 -0.277054 7.25916 11.1327 
53 1 2.57035 7.06874 15.6344 
56 1 1.29871 7.1828 14.8331 
63 1 -2.32944 6.21977 21.7505 
66 1 -3.37081 6.75643 20.88 
70 1 -0.132646 7.22319 12.6297 
72 1 0.54764 5.93983 12.8415 
92 1 0.895613 8.45381 14.2474 
95 1 -4.98217 10.4607 21.7 
98 1 -4.68186 9.20215 20.8586 
104 1 0.370526 9.34854 11.8488 
116 1 -2.61454 8.74897 21.8535 
118 1 -3.54742 8.37784 20.9402 
122 1 0.149245 8.51885 13.057 
133 1 -3.3808 6.72925 11.8883 
136 1 0.311487 8.51024 22.0909 
147 1 0.523085 5.93443 19.8604 
153 1 -4.65762 9.25455 11.9227 
160 1 0.898838 8.46521 18.5158 
1 1 7.86887 4.9046 10.5503 
4 1 9.19685 4.79765 11.0299 
20 1 7.89064 4.94323 9.03583 
42 1 9.46003 5.44499 7.43813 
67 1 9.9708 4.54785 0.748788 
77 1 7.8826 4.92603 0.078737 
94 1 7.88528 4.94969 1.55685 
96 1 9.19693 4.65587 1.99538 
121 1 4.70626 5.44756 10.6751 
130 1 9.44267 5.42922 3.18941 
134 1 9.97292 4.53745 9.86719 
152 1 9.19836 4.66257 8.59677 
45 1 4.70541 5.43363 22.0433 
55 1 4.8194 5.4684 13.0748 
106 1 9.18343 4.79413 21.738 
137 1 4.80651 5.48258 19.6924 
2 1 7.24759 10.5542 9.05658 
3 1 8.96841 7.63988 6.04823 
6 1 8.53228 6.36176 6.82646 
16 1 2.32958 8.69618 0.846454 
22 1 7.1694 6.16184 8.72234 
26 1 7.18535 8.41053 7.54464 
35 1 7.22761 10.6206 10.4861 
37 1 6.81891 9.35525 11.0162 
39 1 8.29241 8.93897 6.74729 
41 1 6.72086 7.03314 9.81176 
48 1 3.68338 6.35902 0.843274 
61 1 7.23242 10.5254 1.54662 
62 1 8.93863 7.63939 4.55896 
64 1 6.72663 9.24074 1.99249 
68 1 7.40299 6.96573 3.06129 
71 1 4.25843 8.424 10.7237 
74 1 3.6379 7.77434 9.85464 
81 1 8.53296 6.39807 3.7752 
83 1 6.54287 8.43367 0.806777 
93 1 7.22405 10.5788 0.117238 
97 1 8.30922 8.93016 3.84519 
101 1 2.36958 9.88526 10.6416 
103 1 2.32056 8.68378 9.80209 
117 1 7.16655 6.18454 1.87803 
120 1 7.1796 8.42354 3.04716 
123 1 3.82239 6.30941 9.80332 
129 1 6.73896 7.01761 0.789444 
132 1 6.7296 9.24343 8.63001 
135 1 7.39274 6.95962 7.56206 
141 1 7.24715 6.17897 10.9227 
144 1 6.57303 8.40385 9.76126 
148 1 3.62298 7.79986 0.789024 
161 2 5.11624 9.70115 10.5945 
7 1 9.19975 6.03294 11.9155 
10 1 3.6651 9.82166 21.6176 
13 1 2.33995 9.93482 22.1029 
15 1 2.99755 8.33306 17.9173 
28 1 3.64469 9.77385 20.1142 
30 1 4.36711 8.54001 19.8028 
34 1 4.35042 6.30289 18.6387 
40 1 7.8432 8.36339 11.9018 
49 1 4.80096 7.70321 20.8995 
50 1 2.0876 9.28686 18.506 
58 1 1.537 10.1877 11.8241 
59 1 4.13561 7.74187 14.1384 
69 1 3.73875 9.97712 11.1555 
73 1 3.00082 8.33716 14.8553 
75 1 5.01414 6.27028 11.9031 
79 1 7.23883 6.18868 21.8669 
82 1 7.9036 6.97676 20.9097 
86 1 3.63863 9.7522 12.6188 
88 1 2.31711 10.0705 13.1014 
108 1 9.20397 6.04122 20.8509 
112 1 4.37717 8.52216 12.9585 
115 1 4.3394 6.30281 14.1475 
124 1 4.77351 7.64027 11.8945 
125 1 2.07387 9.28647 14.2658 
126 1 6.83712 9.25936 21.751 
128 1 7.76902 8.38068 20.8861 
139 1 1.55411 10.18 20.9395 
140 1 4.12747 7.75392 18.6279 
143 1 7.90964 6.93785 11.8519 
146 1 4.30371 8.53593 21.9743 
149 1 4.99571 6.27109 20.8986 
157 1 2.33934 10.0618 19.6806 
ITEM: TIMESTEP
20
ITEM: NUMBER OF ATOMS
161
ITEM: BOX BOUNDS xy xz yz pp pp pp
-6.7755000000000001e+00 1.3552000000000000e+01 -6.7755000000000001e+00
0.0000000000000000e+00 1.1735510246683001e+01 0.0000000000000000e+00
0.0000000000000000e+00 2.2149999999999999e+01 0.0000000000000000e+00
ITEM: ATOMS id type x y z 
8 1 -2.41888 5.37746 9.84813 
87 1 2.96624 4.29835 10.6366 
90 1 2.63226 5.53264 9.79387 
109 1 -2.42023 5.38154 0.770872 
158 1 2.65328 5.46111 0.837347 
11 1 4.28792 4.20247 20.1227 
14 1 2.90741 4.13599 19.6934 
18 1 1.31951 5.86327 18.6037 
33 1 2.1365 4.21209 20.9073 
43 1 4.30767 4.17215 21.5768 
47 1 3.25583 5.79945 17.8279 
52 1 4.28544 4.195 12.6316 
76 1 2.43596 4.9252 14.1752 
85 1 4.27982 4.17353 11.1833 
89 1 3.24737 5.79746 14.9368 
91 1 0.998647 5.04073 11.8622 
102 1 2.90943 4.13046 13.0731 
105 1 1.32119 5.86217 14.1554 
114 1 2.13833 4.21036 11.8494 
150 1 2.43799 4.93454 18.5873 
156 1 2.97763 4.26653 22.1211 
159 1 0.991177 5.05285 20.9083 
5 1 -4.9186 10.5889 8.61736 
9 1 -3.33296 8.86776 7.52123 
19 1 -1.74516 7.48768 10.5551 
21 1 -2.61978 8.76224 10.8768 
23 1 -3.30958 7.5567 6.84001 
25 1 -4.14618 10.5002 9.83184 
32 1 1.59608 6.3577 0.745053 
36 1 -1.88021 7.52047 9.06508 
38 1 -2.15963 6.20965 8.63738 
54 1 0.301561 8.52567 10.6742 
57 1 1.37022 7.93843 9.78841 
60 1 -1.75432 7.49126 0.0582696 
65 1 -3.30919 7.53899 3.77797 
78 1 -1.89276 7.54442 1.55375 
80 1 -2.55394 8.78921 1.87823 
84 1 -4.46639 9.80378 3.10335 
99 1 -3.00123 9.63734 0.787425 
100 1 -2.92734 6.2717 3.179 
107 1 -4.91881 10.5895 1.98599 
110 1 -3.32931 8.86927 3.09093 
111 1 0.582198 5.93889 10.8092 
113 1 1.50799 6.36621 9.86674 
119 1 -4.1397 10.4807 0.778575 
127 1 -2.1613 6.21962 1.97252 
131 1 -2.3269 6.20302 11.0164 
138 1 1.36274 7.97503 0.816688 
142 1 -2.54577 8.78953 8.77563 
145 1 -4.44832 9.79335 7.50619 
151 1 -4.99998 10.4392 11.0368 
154 1 -2.99854 9.66825 9.83943 
155 1 -2.93083 6.27651 7.43439 
12 1 2.56734 7.0748 17.1475 
17 1 0.403303 9.34769 20.9196 
24 1 -3.61048 8.353 11.827 
27 1 -0.276555 7.23974 21.628 
29 1 0.611343 5.9622 21.9488 
31 1 1.28974 7.17011 17.9214 
44 1 -0.142312 7.20305 20.1454 
46 1 0.141502 8.51512 19.7127 
51 1 -0.282068 7.26088 11.1444 
53 1 2.56279 7.07475 15.6204 
56 1 1.29151 7.17166 14.8425 
63 1 -2.32836 6.21031 21.7531 
66 1 -3.3823 6.76733 20.87 
70 1 -0.144926 7.2061 12.6239 
72 1 0.541883 5.93598 12.9092 
92 1 0.912661 8.45431 14.2569 
95 1 -4.98974 10.4203 21.7229 
98 1 -4.6747 9.20977 20.8565 
104 1 0.396236 9.34973 11.8393 
116 1 -2.60688 8.7714 21.8368 
118 1 -3.54027 8.367 20.9312 
122 1 0.136006 8.51081 13.0547 
133 1 -3.38206 6.74781 11.8938 
136 1 0.309897 8.52016 22.0946 
147 1 0.52987 5.93476 19.8527 
153 1 -4.66571 9.25645 11.922 
160 1 0.912016 8.45245 18.5096 
1 1 7.8593 4.91127 10.5383 
4 1 9.1677 4.79763 11.0191 
20 1 7.8706 4.93822 9.06029 
42 1 9.46157 5.44766 7.43275 
67 1 9.97155 4.56271 0.759859 
77 1 7.86944 4.92814 0.082215 
94 1 7.86747 4.94073 1.55048 
96 1 9.1906 4.66604 1.99792 
121 1 4.68854 5.46774 10.6693 
130 1 9.46141 5.44455 3.17869 
134 1 9.97681 4.5576 9.85283 
152 1 9.19097 4.66284 8.60997 
45 1 4.66587 5.46332 22.0601 
55 1 4.82118 5.48142 13.0801 
106 1 9.16732 4.80597 21.7409 
137 1 4.81428 5.49795 19.6992 
2 1 7.25432 10.5356 9.04593 
3 1 8.96859 7.64387 6.06934 
6 1 8.5156 6.38238 6.81342 
16 1 2.35451 8.6918 0.854001 
22 1 7.14395 6.17612 8.71547 
26 1 7.20517 8.41174 7.53774 
35 1 7.23691 10.583 10.4808 
37 1 6.81296 9.29154 10.9984 
39 1 8.28257 8.92526 6.7548 
41 1 6.72602 7.01608 9.82115 
48 1 3.69709 6.3619 0.824142 
61 1 7.24804 10.521 1.5592 
62 1 8.96981 7.64553 4.54454 
64 1 6.71689 9.22309 1.98577 
68 1 7.39263 6.96428 3.06016 
71 1 4.28202 8.41117 10.7049 
74 1 3.64454 7.76476 9.8428 
81 1 8.51572 6.38684 3.78914 
83 1 6.54415 8.43385 0.801381 
93 1 7.2403 10.5545 0.120156 
97 1 8.28227 8.92816 3.85024 
101 1 2.39161 9.88239 10.67 
103 1 2.34133 8.67997 9.80698 
117 1 7.14129 6.18743 1.8936 
120 1 7.19838 8.41938 3.06697 
123 1 3.8032 6.30428 9.8078 
129 1 6.72418 7.01406 0.784187 
132 1 6.72627 9.2187 8.62444 
135 1 7.39644 6.95606 7.55358 
141 1 7.23325 6.19774 10.9227 
144 1 6.60284 8.42421 9.79362 
148 1 3.60523 7.79033 0.789513 
161 2 5.07574 9.71542 10.5946 
7 1 9.17814 6.03154 11.9276 
10 1 3.67372 9.81184 21.6074 
13 1 2.36886 9.92774 22.0923 
15 1 3.01638 8.3338 17.8995 
28 1 3.6655 9.78202 20.138 
30 1 4.39287 8.5315 19.7968 
34 1 4.33521 6.29953 18.622 
40 1 7.83164 8.36724 11.8856 
49 1 4.80469 7.71361 20.909 
50 1 2.07287 9.27945 18.5088 
58 1 1.56206 10.1494 11.8301 
59 1 4.13475 7.75122 14.1415 
69 1 3.73926 9.98615 11.1647 
73 1 3.02086 8.33248 14.8687 
75 1 5.01445 6.26787 11.898 
79 1 7.2343 6.20316 21.8403 
82 1 7.91835 6.95833 20.9055 
86 1 3.64599 9.75637 12.6126 
88 1 2.33129 10.0533 13.0739 
108 1 9.17674 6.05271 20.8449 
112 1 4.38912 8.51837 12.9648 
115 1 4.33502 6.29981 14.1516 
124 1 4.78222 7.65953 11.8957 
125 1 2.07242 9.27816 14.2576 
126 1 6.85802 9.25209 21.7525 
128 1 7.75579 8.37807 20.8817 
139 1 1.55801 10.1661 20.926 
140 1 4.13839 7.75802 18.6297 
143 1 7.92289 6.94309 11.86 
146 1 4.30489 8.52241 21.9928 
149 1 4.99082 6.28022 20.903 
157 1 2.34483 10.0567 19.6886 
ITEM: TIMESTEP
30
ITEM: NUMBER OF ATOMS
161
ITEM: BOX BOUNDS xy xz yz pp pp pp
-6.7755000000000001e+00 1.3552000000000000e+01 -6.7755000000000001e+00
0.0000000000000000e+00 1.1735510246683001e+01 0.0000000000000000e+00
0.0000000000000000e+00 2.2149999999999999e+01 0.0000000000000000e+00
ITEM: ATOMS id type x y z 
8 1 -2.43242 5.39673 9.84041 
87 1 2.95538 4.32187 10.6361 
90 1 2.62528 5.53985 9.79458 
109 1 -2.43347 5.40433 0.781236 
158 1 2.63352 5.45096 0.831003 
11 1 4.28074 4.22389 20.1158 
14 1 2.89763 4.14853 19.6973 
18 1 1.30777 5.86281 18.6048 
33 1 2.11485 4.21411 20.9069 
43 1 4.29091 4.21644 21.5585 
47 1 3.24678 5.80222 17.8217 
52 1 4.27414 4.21594 12.6418 
76 1 2.42841 4.94072 14.1759 
85 1 4.26803 4.21309 11.1943 
89 1 3.24473 5.7968 14.9472 
91 1 0.97184 5.03989 11.8502 
102 1 2.89577 4.1428 13.0691 
105 1 1.30859 5.86004 14.161 
114 1 2.11812 4.21196 11.8522 
150 1 2.42953 4.94275 18.588 
156 1 2.96651 4.27557 22.1277 
159 1 0.972883 5.05059 20.9205 
5 1 -4.90573 10.5798 8.61728 
9 1 -3.32035 8.86466 7.52517 
19 1 -1.74739 7.49784 10.5521 
21 1 -2.61677 8.76495 10.8737 
23 1 -3.30317 7.55846 6.84054 
25 1 -4.13143 10.5031 9.83098 
32 1 1.60485 6.38886 0.749078 
36 1 -1.85192 7.53349 9.06794 
38 1 -2.15489 6.22361 8.63455 
54 1 0.309423 8.50948 10.6712 
57 1 1.37833 7.93502 9.79752 
60 1 -1.75559 7.51408 0.0593649 
65 1 -3.3011 7.54454 3.78553 
78 1 -1.87292 7.56291 1.55141 
80 1 -2.53838 8.79621 1.89436 
84 1 -4.46215 9.79453 3.10344 
99 1 -2.97489 9.61878 0.773714 
100 1 -2.93395 6.28222 3.17215 
107 1 -4.90237 10.5741 1.98172 
110 1 -3.31513 8.87365 3.10929 
111 1 0.560472 5.93155 10.8037 
113 1 1.50364 6.38669 9.86602 
119 1 -4.1172 10.4602 0.780298 
127 1 -2.16022 6.24069 1.97455 
131 1 -2.34048 6.21262 11.0232 
138 1 1.37383 7.95721 0.808784 
142 1 -2.53285 8.79163 8.77976 
145 1 -4.44127 9.78193 7.50727 
151 1 -4.99057 10.4366 11.0446 
154 1 -2.98062 9.67846 9.84894 
155 1 -2.93701 6.28328 7.44053 
12 1 2.56553 7.07433 17.1528 
17 1 0.414751 9.32524 20.9145 
24 1 -3.6192 8.33196 11.8286 
27 1 -0.275981 7.22843 21.6306 
29 1 0.602777 5.95921 21.9512 
31 1 1.28291 7.16619 17.9159 
44 1 -0.166532 7.18976 20.1471 
46 1 0.1372 8.49944 19.7113 
51 1 -0.284777 7.24815 11.1443 
53 1 2.56299 7.07115 15.6136 
56 1 1.28591 7.16484 14.8494 
63 1 -2.34079 6.22984 21.7485 
66 1 -3.39151 6.77863 20.8738 
70 1 -0.166112 7.19063 12.6237 
72 1 0.520406 5.93098 12.906 
92 1 0.915059 8.44434 14.2494 
95 1 -4.97235 10.3924 21.7229 
98 1 -4.66764 9.20059 20.8525 
104 1 0.407212 9.32811 11.8459 
116 1 -2.5852 8.7834 21.8089 
118 1 -3.52739 8.3471 20.9192 
122 1 0.132691 8.49927 13.0568 
133 1 -3.39132 6.75527 11.8863 
136 1 0.321232 8.50616 22.0975 
147 1 0.515568 5.93039 19.8546 
153 1 -4.65369 9.26338 11.9206 
160 1 0.917608 8.44235 18.5163 
1 1 7.818 4.91136 10.5329 
4 1 9.14562 4.82483 11.011 
20 1 7.83488 4.94306 9.07011 
42 1 9.4567 5.45843 7.43662 
67 1 9.95787 4.58572 0.769931 
77 1 7.82936 4.93228 0.081273 
94 1 7.83518 4.94357 1.54582 
96 1 9.1689 4.68634 1.99573 
121 1 4.68768 5.48592 10.6665 
130 1 9.45166 5.45816 3.17111 
134 1 9.9631 4.57826 9.84366 
152 1 9.17012 4.68098 8.61256 
45 1 4.65104 5.50241 22.0821 
55 1 4.82149 5.49882 13.0867 
106 1 9.14821 4.83955 21.7474 
137 1 4.81491 5.52094 19.6965 
2 1 7.26249 10.5073 9.03137 
3 1 8.9652 7.65071 6.07361 
6 1 8.51463 6.38923 6.80184 
16 1 2.36121 8.69404 0.857719 
22 1 7.11398 6.17053 8.69778 
26 1 7.20665 8.40152 7.52923 
35 1 7.25404 10.5284 10.4642 
37 1 6.84072 9.24837 11.0252 
39 1 8.29298 8.92034 6.74427 
41 1 6.72032 6.99756 9.83062 
48 1 3.70036 6.34911 0.824328 
61 1 7.26119 10.4957 1.56578 
62 1 8.96946 7.64296 4.53398 
64 1 6.7181 9.20126 1.98904 
68 1 7.38391 6.95342 3.06414 
71 1 4.32081 8.38346 10.6743 
74 1 3.65129 7.76945 9.82161 
81 1 8.50808 6.3883 3.8029 
83 1 6.53741 8.41463 0.804957 
93 1 7.25637 10.5132 0.126565 
97 1 8.28923 8.92458 3.85952 
101 1 2.40451 9.85812 10.6654 
103 1 2.36776 8.66188 9.82241 
117 1 7.10961 6.18029 1.91057 
120 1 7.20143 8.4149 3.07615 
123 1 3.80187 6.3207 9.7937 
129 1 6.70829 6.99205 0.778777 
132 1 6.72368 9.19591 8.6156 
135 1 7.38763 6.94604 7.54474 
141 1 7.22194 6.20876 10.9363 
144 1 6.61466 8.41859 9.80322 
148 1 3.59521 7.80607 0.806787 
161 2 5.0258 9.73801 10.5598 
7 1 9.17071 6.02738 11.9312 
10 1 3.7137 9.81115 21.6073 
13 1 2.39006 9.9006 22.0827 
15 1 3.02366 8.32936 17.8857 
28 1 3.69835 9.77813 20.1409 
30 1 4.42244 8.54042 19.7822 
34 1 4.33201 6.30834 18.612 
40 1 7.83977 8.37451 11.887 
49 1 4.82182 7.73178 20.9146 
50 1 2.08225 9.26508 18.5142 
58 1 1.58314 10.1242 11.8346 
59 1 4.14262 7.7571 14.1498 
69 1 3.74528 10.0233 11.1809 
73 1 3.02566 8.33013 14.8827 
75 1 5.01843 6.28513 11.8992 
79 1 7.22354 6.20881 21.8266 
82 1 7.92058 6.9537 20.886 
86 1 3.68814 9.75551 12.6291 
88 1 2.36345 10.0293 13.0693 
108 1 9.16621 6.05939 20.8447 
112 1 4.40885 8.52512 12.9708 
115 1 4.33371 6.30579 14.1622 
124 1 4.80347 7.67608 11.8907 
125 1 2.07921 9.26058 14.2563 
126 1 6.85388 9.22204 21.7451 
128 1 7.74727 8.37913 20.8718 
139 1 1.57476 10.1468 20.9166 
140 1 4.14885 7.7662 18.6259 
143 1 7.9358 6.92504 11.8782 
146 1 4.31213 8.5183 22.0142 
149 1 4.99369 6.30519 20.8965 
157 1 2.36695 10.0379 19.6897 
ITEM: TIMESTEP
40
ITEM: NUMBER OF ATOMS
161
ITEM: BOX BOUNDS xy xz yz pp pp pp
-6.7755000000000001e+00 1.3552000000000000e+01 -6.7755000000000001e+00
0.0000000000000000e+00 1.1735510246683001e+01 0.0000000000000000e+00
0.0000000000000000e+00 2.2149999999999999e+01 0.0000000000000000e+00
ITEM: ATOMS id type x y z 
8 1 -2.45127 5.42923 9.83882 
87 1 2.94418 4.35652 10.6471 
90 1 2.61862 5.57263 9.78218 
109 1 -2.45191 5.44854 0.779325 
158 1 2.62325 5.46094 0.847407 
11 1 4.26992 4.26831 20.0995 
14 1 2.87627 4.16213 19.7084 
18 1 1.29618 5.8686 18.6071 
33 1 2.09604 4.21451 20.9107 
43 1 4.27156 4.27032 21.5424 
47 1 3.23284 5.79784 17.8267 
52 1 4.26111 4.25037 12.6583 
76 1 2.4036 4.93868 14.175 
85 1 4.248 4.25361 11.2171 
89 1 3.23009 5.79333 14.9446 
91 1 0.927881 5.02145 11.85 
102 1 2.87484 4.15904 13.0591 
105 1 1.29728 5.86792 14.1542 
114 1 2.09031 4.21378 11.8432 
150 1 2.40538 4.9421 18.588 
156 1 2.95701 4.29514 22.1231 
159 1 0.939825 5.03678 20.9218 
5 1 -4.88922 10.5653 8.62242 
9 1 -3.31524 8.8574 7.52826 
19 1 -1.74308 7.50475 10.5474 
21 1 -2.60277 8.77639 10.8762 
23 1 -3.30093 7.55604 6.83896 
25 1 -4.10989 10.5098 9.83732 
32 1 1.58289 6.39549 0.755092 
36 1 -1.81555 7.55073 9.06028 
38 1 -2.13585 6.24722 8.63873 
54 1 0.320968 8.49168 10.673 
57 1 1.39443 7.92319 9.80664 
60 1 -1.7553 7.54723 0.0539773 
65 1 -3.30278 7.53851 3.79275 
78 1 -1.848 7.59304 1.56035 
80 1 -2.50922 8.81284 1.91056 
84 1 -4.43689 9.79052 3.11061 
99 1 -2.93209 9.59885 0.766132 
100 1 -2.93379 6.28941 3.16729 
107 1 -4.87949 10.5467 1.97313 
110 1 -3.29608 8.87871 3.12941 
111 1 0.528539 5.92504 10.8029 
113 1 1.48082 6.40019 9.87387 
119 1 -4.08525 10.4323 0.77458 
127 1 -2.14537 6.27198 1.97348 
131 1 -2.34955 6.22776 11.0182 
138 1 1.38943 7.95222 0.810935 
142 1 -2.50858 8.80591 8.79515 
145 1 -4.4143 9.77989 7.5085 
151 1 -4.95692 10.4273 11.0474 
154 1 -2.95407 9.69611 9.84357 
155 1 -2.93239 6.28754 7.446 
12 1 2.56949 7.05518 17.1469 
17 1 0.435937 9.29344 20.9125 
24 1 -3.60524 8.32159 11.8305 
27 1 -0.280678 7.212 21.6273 
29 1 0.579358 5.95514 21.9567 
31 1 1.28346 7.17417 17.9174 
44 1 -0.202442 7.16979 20.1416 
46 1 0.121229 8.4739 19.7141 
51 1 -0.29643 7.23284 11.1447 
53 1 2.57133 7.04986 15.6212 
56 1 1.28297 7.17017 14.8455 
63 1 -2.34551 6.25306 21.7604 
66 1 -3.39918 6.79234 20.864 
70 1 -0.200951 7.17398 12.6337 
72 1 0.498819 5.91933 12.8986 
92 1 0.909903 8.43431 14.2466 
95 1 -4.95873 10.3492 21.7266 
98 1 -4.65435 9.1688 20.8303 
104 1 0.428001 9.29868 11.8463 
116 1 -2.54203 8.79518 21.7821 
118 1 -3.504 8.33982 20.8924 
122 1 0.116503 8.47199 13.0552 
133 1 -3.40775 6.77194 11.8892 
136 1 0.333227 8.4875 22.0937 
147 1 0.491975 5.91865 19.8592 
153 1 -4.61573 9.27121 11.9284 
160 1 0.915096 8.43756 18.5237 
1 1 7.75829 4.88602 10.5402 
4 1 9.09967 4.84536 10.9879 
20 1 7.7949 4.95656 9.06295 
42 1 9.4379 5.47089 7.43892 
67 1 9.93299 4.62757 0.77229 
77 1 7.77149 4.91618 0.0720986 
94 1 7.78761 4.95214 1.55392 
96 1 9.11725 4.71125 1.99207 
121 1 4.67898 5.52453 10.6626 
130 1 9.43659 5.47083 3.16562 
134 1 9.93734 4.61431 9.84249 
152 1 9.11029 4.70424 8.61 
45 1 4.63452 5.53647 22.0795 
55 1 4.82128 5.53246 13.0915 
106 1 9.11096 4.87442 21.7609 
137 1 4.81692 5.55684 19.6944 
2 1 7.27457 10.4579 9.01255 
3 1 8.96919 7.66428 6.06996 
6 1 8.51188 6.38946 6.799 
16 1 2.3788 8.69483 0.867427 
22 1 7.06334 6.15281 8.68416 
26 1 7.20966 8.37891 7.50796 
35 1 7.2713 10.4668 10.4529 
37 1 6.93213 9.18366 11.0409 
39 1 8.30006 8.92451 6.74701 
41 1 6.70269 6.98545 9.82312 
48 1 3.67939 6.36332 0.859552 
61 1 7.28176 10.4549 1.57698 
62 1 8.96028 7.66118 4.54134 
64 1 6.72167 9.17001 1.99116 
68 1 7.37054 6.94648 3.07946 
71 1 4.41112 8.39341 10.6461 
74 1 3.65975 7.7829 9.77755 
81 1 8.50515 6.39056 3.80488 
83 1 6.52405 8.38484 0.807082 
93 1 7.28117 10.4568 0.138401 
97 1 8.2943 8.92763 3.86084 
101 1 2.43718 9.84173 10.6809 
103 1 2.40758 8.63064 9.82838 
117 1 7.05638 6.16047 1.92811 
120 1 7.20109 8.38877 3.0943 
123 1 3.80105 6.3144 9.76754 
129 1 6.67577 6.96755 0.785376 
132 1 6.72819 9.16363 8.60999 
135 1 7.37236 6.93873 7.52581 
141 1 7.19804 6.20673 10.9566 
144 1 6.60516 8.38975 9.81336 
148 1 3.60606 7.80908 0.838202 
161 2 4.89905 9.76813 10.4623 
7 1 9.15782 6.02913 11.9468 
10 1 3.77177 9.83302 21.6118 
13 1 2.43138 9.8743 22.0663 
15 1 3.02714 8.32425 17.8838 
28 1 3.74278 9.76886 20.1384 
30 1 4.47459 8.55862 19.7636 
34 1 4.33193 6.3345 18.5943 
40 1 7.8508 8.3601 11.9384 
49 1 4.84949 7.75787 20.9127 
50 1 2.09745 9.25089 18.5202 
58 1 1.61304 10.0771 11.8386 
59 1 4.15648 7.76699 14.154 
69 1 3.75049 10.0836 11.2148 
73 1 3.02928 8.31966 14.8844 
75 1 5.02341 6.30386 11.9052 
79 1 7.19278 6.21769 21.8067 
82 1 7.89665 6.94719 20.8511 
86 1 3.74536 9.76227 12.6391 
88 1 2.40869 10.0019 13.076 
108 1 9.14558 6.07191 20.838 
112 1 4.44951 8.52415 12.9856 
115 1 4.33237 6.32958 14.1806 
124 1 4.83702 7.6985 11.8852 
125 1 2.09227 9.24493 14.2527 
126 1 6.854 9.19078 21.7426 
128 1 7.74703 8.36966 20.8427 
139 1 1.59717 10.109 20.9118 
140 1 4.16176 7.77304 18.6109 
143 1 7.92853 6.90196 11.9115 
146 1 4.34035 8.51426 22.0352 
149 1 4.99702 6.33542 20.8969 
157 1 2.42161 10.0134 19.6893 
ITEM: TIMESTEP
50
ITEM: NUMBER OF ATOMS
161
ITEM: BOX BOUNDS xy xz yz pp pp pp
-6.7755000000000001e+00 1.3552000000000000e+01 -6.7755000000000001e+00
0.0000000000000000e+00 1.1735510246683001e+01 0.0000000000000000e+00
0.0000000000000000e+00 2.2149999999999999e+01 0.0000000000000000e+00
ITEM: ATOMS id type x y z 
8 1 -2.46145 5.44022 9.83403 
87 1 2.93657 4.37395 10.6439 
90 1 2.60792 5.56761 9.78019 
109 1 -2.46206 5.46117 0.785644 
158 1 2.61398 5.464 0.852352 
11 1 4.26226 4.28223 20.0966 
14 1 2.86945 4.16739 19.7077 
18 1 1.28847 5.87014 18.6103 
33 1 2.0894 4.21617 20.9147 
43 1 4.26575 4.28272 21.5359 
47 1 3.22953 5.79769 17.8304 
52 1 4.25196 4.263 12.6626 
76 1 2.39852 4.93972 14.1766 
85 1 4.24759 4.27211 11.2213 
89 1 3.2286 5.7897 14.941 
91 1 0.911499 5.01875 11.8411 
102 1 2.86326 4.16167 13.0547 
105 1 1.29091 5.86712 14.1534 
114 1 2.08128 4.21964 11.8429 
150 1 2.39932 4.94262 18.5879 
156 1 2.94957 4.30548 22.1247 
159 1 0.928277 5.03069 20.9281 
5 1 -4.87927 10.56 8.62569 
9 1 -3.3073 8.85446 7.53172 
19 1 -1.74182 7.51187 10.5403 
21 1 -2.59636 8.78842 10.8815 
23 1 -3.2984 7.55115 6.84039 
25 1 -4.08882 10.5039 9.83474 
32 1 1.58179 6.39732 0.757185 
36 1 -1.80727 7.55935 9.06167 
38 1 -2.13413 6.25211 8.63815 
54 1 0.337967 8.48026 10.6631 
57 1 1.38585 7.90943 9.82125 
60 1 -1.75262 7.55393 0.0610619 
65 1 -3.30214 7.53949 3.7962 
78 1 -1.83679 7.60345 1.56121 
80 1 -2.49823 8.81798 1.91663 
84 1 -4.43038 9.79389 3.11252 
99 1 -2.91527 9.59787 0.763985 
100 1 -2.93601 6.29069 3.16495 
107 1 -4.86978 10.5379 1.97431 
110 1 -3.28777 8.87667 3.13229 
111 1 0.512735 5.91654 10.8053 
113 1 1.47397 6.41333 9.86761 
119 1 -4.07936 10.4226 0.770047 
127 1 -2.14628 6.27777 1.97459 
131 1 -2.36223 6.23426 11.0212 
138 1 1.39472 7.94917 0.812657 
142 1 -2.4968 8.81398 8.78351 
145 1 -4.41335 9.78114 7.50808 
151 1 -4.9496 10.422 11.0479 
154 1 -2.9483 9.69571 9.84734 
155 1 -2.93491 6.28608 7.44847 
12 1 2.56733 7.05585 17.1523 
17 1 0.44381 9.28011 20.908 
24 1 -3.58755 8.3285 11.8346 
27 1 -0.281781 7.20714 21.6231 
29 1 0.574365 5.94914 21.9559 
31 1 1.28238 7.17205 17.9159 
44 1 -0.21345 7.16092 20.1402 
46 1 0.119984 8.47153 19.7142 
51 1 -0.29826 7.22178 11.1525 
53 1 2.56568 7.05232 15.6172 
56 1 1.28292 7.16627 14.8512 
63 1 -2.35609 6.26572 21.754 
66 1 -3.39743 6.79502 20.8632 
70 1 -0.21365 7.16376 12.6317 
72 1 0.482134 5.91459 12.9032 
92 1 0.907593 8.43511 14.244 
95 1 -4.95142 10.3299 21.7201 
98 1 -4.64951 9.15998 20.8232 
104 1 0.436257 9.2842 11.8527 
116 1 -2.53615 8.80013 21.7733 
118 1 -3.49143 8.33819 20.8835 
122 1 0.116977 8.47276 13.0536 
133 1 -3.41142 6.76794 11.8893 
136 1 0.342535 8.48063 22.0953 
147 1 0.479355 5.91549 19.8589 
153 1 -4.61722 9.25909 11.9316 
160 1 0.916374 8.43869 18.5265 
1 1 7.74055 4.88558 10.5356 
4 1 9.08405 4.85736 10.9896 
20 1 7.77364 4.95436 9.06805 
42 1 9.4365 5.47635 7.44539 
67 1 9.92242 4.64695 0.778787 
77 1 7.74483 4.90618 0.0693723 
94 1 7.77086 4.95543 1.54269 
96 1 9.1078 4.72135 1.99251 
121 1 4.68144 5.52637 10.673 
130 1 9.43272 5.47692 3.15945 
134 1 9.91861 4.62852 9.8316 
152 1 9.10189 4.71614 8.61405 
45 1 4.62184 5.55455 22.0851 
55 1 4.82332 5.54157 13.0992 
106 1 9.0913 4.89356 21.7634 
137 1 4.81613 5.57144 19.6892 
2 1 7.28301 10.4432 9.02544 
3 1 8.96833 7.66311 6.07265 
6 1 8.50706 6.39566 6.79454 
16 1 2.38789 8.69429 0.867082 
22 1 7.04816 6.1485 8.6737 
26 1 7.20766 8.37825 7.50642 
35 1 7.29681 10.4422 10.457 
37 1 6.93539 9.16316 11.027 
39 1 8.30737 8.92633 6.75074 
41 1 6.69384 6.96079 9.83128 
48 1 3.67756 6.36546 0.864254 
61 1 7.29176 10.4413 1.57998 
62 1 8.96076 7.65811 4.53829 
64 1 6.72198 9.15401 1.99585 
68 1 7.3611 6.93591 3.07965 
71 1 4.50621 8.41575 10.6613 
74 1 3.61259 7.73903 9.72394 
81 1 8.49871 6.39572 3.81089 
83 1 6.52164 8.37808 0.805567 
93 1 7.28834 10.4435 0.14528 
97 1 8.30016 8.92645 3.85693 
101 1 2.45151 9.8319 10.6873 
103 1 2.4373 8.62187 9.81764 
117 1 7.038 6.15763 1.93945 
120 1 7.20295 8.38737 3.09827 
123 1 3.78954 6.33971 9.7549 
129 1 6.6649 6.95819 0.784217 
132 1 6.7297 9.14899 8.60135 
135 1 7.36457 6.93107 7.52065 
141 1 7.19099 6.20513 10.9605 
144 1 6.59929 8.38386 9.81364 
148 1 3.61324 7.81889 0.843612 
161 2 4.87128 9.80391 10.4316 
7 1 9.14774 6.02581 11.9434 
10 1 3.79386 9.83614 21.6118 
13 1 2.44686 9.86461 22.0645 
15 1 3.03322 8.31977 17.8778 
28 1 3.76194 9.76711 20.1442 
30 1 4.49172 8.56599 19.7557 
34 1 4.33192 6.3346 18.5903 
40 1 7.87034 8.35531 11.9614 
49 1 4.85869 7.7682 20.9157 
50 1 2.10096 9.24304 18.5238 
58 1 1.62613 10.0602 11.8485 
59 1 4.16556 7.77418 14.1554 
69 1 3.73752 10.1253 11.2218 
73 1 3.03375 8.31614 14.8912 
75 1 5.02279 6.29657 11.8973 
79 1 7.18191 6.21507 21.8066 
82 1 7.8891 6.93955 20.844 
86 1 3.76261 9.7647 12.6414 