ITEM: TIMESTEP
0
ITEM: NUMBER OF ATOMS
51
ITEM: BOX BOUNDS pp pp pp
0.0000000000000000e+00 1.1000000000000000e+01
0.0000000000000000e+00 1.1002000000000001e+01
0.0000000000000000e+00 1.1000000000000000e+01
ITEM: ATOMS id type x y z 
10 1 4.603 4.603 4.603 
11 1 3.085 3.085 3.085 
12 1 3.796 3.796 3.796 
46 1 0.726 0.725 0.725 
47 1 2.26 2.259 2.26 
48 1 1.551 1.55 1.55 
19 1 4.546 4.545 6.226 
20 1 3.013 3.013 7.764 
21 1 3.721 3.721 7.053 
31 1 0.668 0.667 10.103 
32 1 2.187 2.187 8.589 
33 1 1.476 1.475 9.298 
16 1 4.546 6.225 4.546 
17 1 3.013 7.765 3.013 
18 1 3.721 7.053 3.722 
25 1 0.668 10.103 0.668 
26 1 2.188 8.589 2.188 
27 1 1.476 9.298 1.476 
49 2 1.975 9.003 3.46 
50 2 3.089 9.845 4.049 
51 3 3.259 9.176 4.759 
4 1 4.608 6.169 6.169 
5 1 3.086 7.684 7.684 
6 1 3.799 6.974 6.974 
37 1 0.729 10.046 10.046 
38 1 2.259 8.509 8.508 
39 1 1.552 9.219 9.219 
13 1 6.225 4.546 4.546 
14 1 7.764 3.013 3.013 
15 1 7.053 3.721 3.722 
28 1 10.102 0.667 0.668 
29 1 8.589 2.187 2.188 
30 1 9.298 1.475 1.476 
1 1 6.168 4.608 6.169 
2 1 7.684 3.086 7.684 
3 1 6.974 3.799 6.974 
40 1 10.045 0.728 10.046 
41 1 8.508 2.259 8.508 
42 1 9.218 1.551 9.218 
7 1 6.169 6.169 4.608 
8 1 7.684 7.684 3.086 
9 1 6.974 6.974 3.799 
43 1 10.046 10.047 0.729 
44 1 8.508 8.509 2.259 
45 1 9.219 9.219 1.552 
22 1 6.229 6.229 6.229 
23 1 7.764 7.765 7.765 
24 1 7.055 7.056 7.055 
34 1 10.108 10.108 10.107 
35 1 8.59 8.59 8.59 
36 1 9.301 9.301 9.3 
ITEM: TIMESTEP
10
ITEM: NUMBER OF ATOMS
51
ITEM: BOX BOUNDS pp pp pp
0.0000000000000000e+00 1.1000000000000000e+01
0.0000000000000000e+00 1.1002000000000001e+01
0.0000000000000000e+00 1.1000000000000000e+01
ITEM: ATOMS id type x y z 
10 1 4.60686 4.58343 4.60821 
11 1 3.08118 3.08471 3.08274 
12 1 3.79882 3.7878 3.79533 
46 1 0.714308 0.751926 0.713901 
47 1 2.26083 2.25718 2.26159 
48 1 1.54729 1.55648 1.5454 
19 1 4.54479 4.54071 6.23085 
20 1 3.00933 3.01055 7.767 
21 1 3.71787 3.7156 7.05582 
31 1 0.671289 0.658819 10.1161 
32 1 2.18435 2.18586 8.59057 
33 1 1.47533 1.47016 9.30267 
16 1 4.57226 6.19848 4.57639 
17 1 3.03311 7.71879 2.9817 
18 1 3.74177 7.02002 3.71371 
25 1 0.697275 10.0688 0.68135 
26 1 2.10157 8.69987 2.28111 
27 1 1.44302 9.32928 1.42719 
49 2 1.97017 8.97892 3.37122 
50 2 3.10935 9.85931 4.07913 
51 3 3.24877 9.20109 4.75421 
4 1 4.61163 6.16556 6.18861 
5 1 3.08191 7.6888 7.68453 
6 1 3.79829 6.97243 6.98265 
37 1 0.719 10.0563 10.0186 
38 1 2.26152 8.50776 8.51017 
39 1 1.54813 9.22328 9.21036 
13 1 6.22993 4.54181 4.54414 
14 1 7.7661 3.0108 3.00927 
15 1 7.05834 3.71585 3.72009 
28 1 10.1145 0.655214 0.671934 
29 1 8.59147 2.18454 2.18346 
30 1 9.30093 1.47113 1.47689 
1 1 6.16963 4.6058 6.16914 
2 1 7.68338 3.08668 7.68202 
3 1 6.97164 3.79945 6.9756 
40 1 10.0429 0.730247 10.0432 
41 1 8.50963 2.25823 8.50832 
42 1 9.21845 1.55152 9.21974 
7 1 6.18817 6.16441 4.61143 
8 1 7.68464 7.68794 3.08165 
9 1 6.98295 6.97347 3.79944 
43 1 10.0193 10.0583 0.718471 
44 1 8.51175 8.5087 2.26007 
45 1 9.21195 9.22506 1.54693 
22 1 6.23306 6.23033 6.23395 
23 1 7.76499 7.7672 7.76752 
24 1 7.06006 7.05909 7.05624 
34 1 10.1153 10.1047 10.1185 
35 1 8.59026 8.59263 8.59129 
36 1 9.30563 9.29995 9.30362 
ITEM: TIMESTEP
20
ITEM: NUMBER OF ATOMS
51
ITEM: BOX BOUNDS pp pp pp
0.0000000000000000e+00 1.1000000000000000e+01
0.0000000000000000e+00 1.1002000000000001e+01
0.0000000000000000e+00 1.1000000000000000e+01
ITEM: ATOMS id type x y z 
10 1 4.61137 4.58015 4.60964 
11 1 3.08419 3.08449 3.08142 
12 1 3.79703 3.78433 3.8018 
46 1 0.717162 0.751003 0.715317 
47 1 2.26019 2.25694 2.25937 
48 1 1.54044 1.56123 1.54141 
19 1 4.5465 4.5338 6.2359 
20 1 3.00633 3.00948 7.76532 
21 1 3.72161 3.7146 7.06055 
31 1 0.669598 0.66545 10.1147 
32 1 2.1847 2.18161 8.59149 
33 1 1.473 1.47547 9.30499 
16 1 4.58186 6.18795 4.58077 
17 1 3.04486 7.69677 2.96486 
18 1 3.73984 7.01269 3.69032 
25 1 0.693854 10.0707 0.66232 
26 1 2.07802 8.72358 2.29825 
27 1 1.43831 9.33314 1.42266 
49 2 1.9509 8.99459 3.37581 
50 2 3.11588 9.87553 4.0854 
51 3 3.24818 9.20571 4.76513 
4 1 4.61375 6.16318 6.19257 
5 1 3.08422 7.68723 7.68404 
6 1 3.80041 6.96955 6.98397 
37 1 0.72264 10.0516 10.0172 
38 1 2.26108 8.50836 8.50866 
39 1 1.54448 9.22728 9.20503 
13 1 6.2381 4.53406 4.54856 
14 1 7.76747 3.00907 3.01049 
15 1 7.05759 3.71665 3.7159 
28 1 10.1128 0.657397 0.672121 
29 1 8.5924 2.18347 2.18344 
30 1 9.30267 1.46982 1.47568 
1 1 6.1677 4.60597 6.1703 
2 1 7.68546 3.08356 7.68624 
3 1 6.97632 3.79642 6.9761 
40 1 10.0406 0.731343 10.0396 
41 1 8.51023 2.25806 8.50929 
42 1 9.22087 1.5492 9.22188 
7 1 6.19446 6.16166 4.61558 
8 1 7.68784 7.68662 3.08469 
9 1 6.98091 6.97269 3.7972 
43 1 10.02 10.0565 0.719133 
44 1 8.51209 8.51107 2.25814 
45 1 9.20777 9.2301 1.54197 
22 1 6.24032 6.22827 6.23788 
23 1 7.76643 7.76931 7.7647 
24 1 7.05969 7.05631 7.06234 
34 1 10.1093 10.1066 10.1165 
35 1 8.59424 8.59102 8.5918 
36 1 9.29933 9.30347 9.3056 
ITEM: TIMESTEP
30
ITEM: NUMBER OF ATOMS
51
ITEM: BOX BOUNDS pp pp pp
0.0000000000000000e+00 1.1000000000000000e+01
0.0000000000000000e+00 1.1002000000000001e+01
0.0000000000000000e+00 1.1000000000000000e+01
ITEM: ATOMS id type x y z 
10 1 4.61129 4.58203 4.61127 
11 1 3.084 3.083 3.08364 
12 1 3.79879 3.78512 3.79944 
46 1 0.714981 0.751201 0.71293 
47 1 2.25813 2.25885 2.25731 
48 1 1.54195 1.56087 1.54253 
19 1 4.54911 4.53272 6.23878 
20 1 3.006 3.00786 7.76761 
21 1 3.72046 3.71356 7.05954 
31 1 0.66825 0.667364 10.1169 
32 1 2.18353 2.18328 8.59166 
33 1 1.47497 1.47348 9.30469 
16 1 4.58246 6.18691 4.57841 
17 1 3.04885 7.68976 2.96173 
18 1 3.74158 7.00657 3.68177 
25 1 0.695646 10.069 0.655746 
26 1 2.07244 8.7279 2.30358 
27 1 1.43593 9.33518 1.42214 
49 2 1.9427 9.0016 3.38084 
50 2 3.11927 9.88113 4.09006 
51 3 3.24747 9.20896 4.76782 
4 1 4.61382 6.16119 6.18992 
5 1 3.08426 7.68512 7.68475 
6 1 3.80254 6.97144 6.98305 
37 1 0.721126 10.0531 10.0169 
38 1 2.25999 8.50972 8.50586 
39 1 1.54589 9.22578 9.20545 
13 1 6.23944 4.53305 4.54936 
14 1 7.7685 3.00781 3.00727 
15 1 7.05895 3.71537 3.7186 
28 1 10.1136 0.656496 0.672896 
29 1 8.59167 2.1828 2.18302 
30 1 9.30467 1.47059 1.47713 
1 1 6.16948 4.604 6.17187 
2 1 7.6859 3.08307 7.68666 
3 1 6.97643 3.79634 6.97627 
40 1 10.0409 0.731034 10.0397 
41 1 8.50956 2.25882 8.50995 
42 1 9.22065 1.54949 9.21934 
7 1 6.19102 6.16075 4.61516 
8 1 7.68737 7.68609 3.08382 
9 1 6.98332 6.97285 3.79942 
43 1 10.0196 10.0582 0.717026 
44 1 8.50984 8.51247 2.25713 
45 1 9.20844 9.22894 1.54305 
22 1 6.24093 6.22608 6.24014 
23 1 7.76786 7.77003 7.76734 
24 1 7.06033 7.05613 7.06024 
34 1 10.1071 10.1082 10.1173 
35 1 8.59248 8.59214 8.59197 
36 1 9.30143 9.30154 9.30503 
ITEM: TIMESTEP
40
ITEM: NUMBER OF ATOMS
51
ITEM: BOX BOUNDS pp pp pp
0.0000000000000000e+00 1.1000000000000000e+01
0.0000000000000000e+00 1.1002000000000001e+01
0.0000000000000000e+00 1.1000000000000000e+01
ITEM: ATOMS id type x y z 
10 1 4.61297 4.58494 4.6129 
11 1 3.0862 3.08313 3.08493 
12 1 3.79956 3.78501 3.80194 
46 1 0.71436 0.751158 0.711759 
47 1 2.2577 2.26175 2.25729 
48 1 1.54142 1.56338 1.54117 
19 1 4.55267 4.53249 6.24111 
20 1 3.00789 3.00774 7.76721 
21 1 3.7209 3.71236 7.05987 
31 1 0.666092 0.670532 10.1185 
32 1 2.18319 2.18434 8.59156 
33 1 1.47525 1.47435 9.30529 
16 1 4.58292 6.18485 4.57161 
17 1 3.04828 7.68462 2.95057 
18 1 3.7448 6.99414 3.6623 
25 1 0.700403 10.0625 0.645177 
26 1 2.06358 8.73286 2.31446 
27 1 1.43414 9.33583 1.42626 
49 2 1.92465 9.01723 3.39263 
50 2 3.12725 9.89356 4.10123 
51 3 3.24555 9.21598 4.7729 
4 1 4.61598 6.15804 6.18622 
5 1 3.08711 7.68299 7.68291 
6 1 3.80428 6.96817 6.98145 
37 1 0.722277 10.052 10.0171 
38 1 2.26042 8.51003 8.50161 
39 1 1.5465 9.22524 9.20328 
13 1 6.24252 4.53067 4.55225 
14 1 7.76903 3.00742 3.00571 
15 1 7.06083 3.71357 3.72159 
28 1 10.1156 0.654436 0.675802 
29 1 8.59178 2.18317 2.18231 
30 1 9.30501 1.4687 1.47885 
1 1 6.17061 4.60167 6.1732 
2 1 7.68728 3.08232 7.68736 
3 1 6.97585 3.79463 6.97765 
40 1 10.0413 0.730673 10.0365 
41 1 8.51042 2.25888 8.50979 
42 1 9.21998 1.55001 9.22006 
7 1 6.18826 6.15913 4.61534 
8 1 7.68744 7.68506 3.08514 
9 1 6.98335 6.9718 3.80064 
43 1 10.0198 10.0593 0.715148 
44 1 8.50761 8.51426 2.25562 
45 1 9.2071 9.22911 1.54269 
22 1 6.24111 6.22367 6.24175 
23 1 7.76878 7.76932 7.76738 
24 1 7.06067 7.05393 7.06082 
34 1 10.1027 10.1105 10.1188 
35 1 8.59075 8.59255 8.59181 
36 1 9.30092 9.30105 9.30466 
ITEM: TIMESTEP
50
ITEM: NUMBER OF ATOMS
51
ITEM: BOX BOUNDS pp pp pp
0.0000000000000000e+00 1.1000000000000000e+01
0.0000000000000000e+00 1.1002000000000001e+01
0.0000000000000000e+00 1.1000000000000000e+01
ITEM: ATOMS id type x y z 
10 1 4.61329 4.58598 4.61471 
11 1 3.08564 3.0814 3.08879 
12 1 3.80275 3.78777 3.79736 
46 1 0.712545 0.753042 0.711377 
47 1 2.25534 2.26455 2.2564 
48 1 1.54403 1.56257 1.54033 
19 1 4.55208 4.53175 6.24103 
20 1 3.00735 3.00673 7.76542 
21 1 3.72404 3.71348 7.06332 
31 1 0.666728 0.67099 10.1184 
32 1 2.18388 2.18148 8.59149 
33 1 1.47162 1.47885 9.30856 
16 1 4.584 6.18206 4.5652 
17 1 3.04749 7.68096 2.94324 
18 1 3.746 6.98734 3.64799 
25 1 0.704897 10.0573 0.639459 
26 1 2.0573 8.73615 2.32487 
27 1 1.43305 9.33579 1.42847 
49 2 1.91147 9.02835 3.40002 
50 2 3.13343 9.9036 4.10935 
51 3 3.2441 9.2204 4.77704 
4 1 4.61865 6.15832 6.18409 
5 1 3.08958 7.68357 7.6819 
6 1 3.80284 6.96459 6.9806 
37 1 0.722102 10.0513 10.0162 
38 1 2.25998 8.5105 8.49703 
39 1 1.54948 9.22256 9.20365 
13 1 6.24329 4.53027 4.55287 
14 1 7.76799 3.00771 3.00388 
15 1 7.06367 3.71165 3.72614 
28 1 10.1202 0.652884 0.679906 
29 1 8.59424 2.18415 2.18311 
30 1 9.30167 1.46585 1.4779 
1 1 6.17207 4.59967 6.17354 
2 1 7.68727 3.08154 7.68879 
3 1 6.9776 3.79449 6.97724 
40 1 10.0425 0.73013 10.0359 
41 1 8.51102 2.26016 8.51136 
42 1 9.22057 1.54613 9.21823 
7 1 6.18479 6.15906 4.61383 
8 1 7.68459 7.6853 3.08518 
9 1 6.98704 6.96876 3.80357 
43 1 10.0179 10.0602 0.713133 
44 1 8.50509 8.51593 2.25396 
45 1 9.20914 9.22889 1.54309 
22 1 6.23926 6.22431 6.24165 
23 1 7.76727 7.76946 7.76748 
24 1 7.06303 7.05076 7.06061 
34 1 10.103 10.1111 10.1187 
35 1 8.59329 8.59107 8.59046 
36 1 9.29485 9.30411 9.30724 
ITEM: TIMESTEP
60
ITEM: NUMBER OF ATOMS
51
ITEM: BOX BOUNDS pp pp pp
0.0000000000000000e+00 1.1000000000000000e+01
0.0000000000000000e+00 1.1002000000000001e+01
0.0000000000000000e+00 1.1000000000000000e+01
ITEM: ATOMS id type x y z 
10 1 4.6136 4.58759 4.61276 
11 1 3.08646 3.08215 3.08748 
12 1 3.80156 3.78657 3.79985 
46 1 0.713479 0.751927 0.71075 
47 1 2.25579 2.26381 2.25572 
48 1 1.54207 1.56421 1.54066 
19 1 4.55298 4.53249 6.24232 
20 1 3.00736 3.00601 7.7673 
21 1 3.72346 3.71274 7.06163 
31 1 0.665566 0.671962 10.1202 
32 1 2.1832 2.18332 8.59192 
33 1 1.47335 1.47698 9.30711 
16 1 4.58402 6.18168 4.56263 
17 1 3.04753 7.67951 2.9415 
18 1 3.74644 6.98521 3.64361 
25 1 0.706622 10.0561 0.637077 
26 1 2.05499 8.73738 2.32779 
27 1 1.43277 9.33555 1.42941 
49 2 1.90708 9.03209 3.40257 
50 2 3.13555 9.90698 4.11217 
51 3 3.24358 9.22184 4.77835 
4 1 4.61832 6.15733 6.18341 
5 1 3.08918 7.68177 7.68121 
6 1 3.80521 6.96619 6.97957 
37 1 0.723361 10.0502 10.018 
38 1 2.26026 8.51049 8.49768 
39 1 1.54842 9.22361 9.20169 
13 1 6.24491 4.52921 4.5547 
14 1 7.76866 3.00742 3.00519 
15 1 7.06335 3.71178 3.72451 
28 1 10.1202 0.65202 0.681046 
29 1 8.5927 2.18334 2.18227 
30 1 9.30441 1.46691 1.47947 
1 1 6.17286 4.59972 6.17318 
2 1 7.6879 3.08173 7.68895 
3 1 6.97733 3.79371 6.97796 
40 1 10.0425 0.729026 10.0346 
41 1 8.51034 2.25934 8.51095 
42 1 9.22175 1.54739 9.21866 
7 1 6.18482 6.15837 4.61432 
8 1 7.68624 7.6847 3.08585 
9 1 6.98466 6.97026 3.80197 
43 1 10.0194 10.0596 0.713619 
44 1 8.50521 8.51546 2.25475 
45 1 9.20667 9.22946 1.54204 
22 1 6.23934 6.22346 6.24148 
23 1 7.76822 7.76804 7.76691 
24 1 7.06141 7.05181 7.0612 
34 1 10.1015 10.1119 10.1189 
35 1 8.59145 8.59196 8.59115 
36 1 9.297 9.30275 9.30602 
ITEM: TIMESTEP
70
ITEM: NUMBER OF ATOMS
51
ITEM: BOX BOUNDS pp pp pp
0.0000000000000000e+00 1.1000000000000000e+01
0.0000000000000000e+00 1.1002000000000001e+01
0.0000000000000000e+00 1.1000000000000000e+01
ITEM: ATOMS id type x y z 
10 1 4.61391 4.58888 4.61183 
11 1 3.08734 3.08154 3.08763 
12 1 3.80036 3.7881 3.79983 
46 1 0.713087 0.751672 0.710179 
47 1 2.2553 2.26407 2.25515 
48 1 1.54175 1.56475 1.54043 
19 1 4.55325 4.5329 6.24287 
20 1 3.0082 3.00538 7.76732 
21 1 3.72297 3.71334 7.06211 
31 1 0.664919 0.672616 10.1209 
32 1 2.1829 2.18336 8.5916 
33 1 1.47376 1.47784 9.30817 
16 1 4.58471 6.17998 4.55847 
17 1 3.04701 7.6777 2.93833 
18 1 3.74715 6.9818 3.63648 
25 1 0.709359 10.0534 0.634199 
26 1 2.05119 8.73921 2.33301 
27 1 1.43277 9.33474 1.43126 
49 2 1.8997 9.03839 3.40682 
50 2 3.1392 9.91272 4.117 
51 3 3.24267 9.22425 4.78054 
4 1 4.61882 6.15629 6.18244 
5 1 3.08981 7.68079 7.68033 
6 1 3.8062 6.96639 6.97797 
37 1 0.724646 10.0488 10.019 
38 1 2.26037 8.51019 8.49624 
39 1 1.54899 9.22347 9.20117 
13 1 6.24675 4.52784 4.55674 
14 1 7.76927 3.00658 3.00589 
15 1 7.06311 3.71237 3.72374 
28 1 10.1212 0.650207 0.683131 
29 1 8.59179 2.18243 2.18132 
30 1 9.30751 1.46721 1.48139 
1 1 6.1735 4.59879 6.17298 
2 1 7.68818 3.08149 7.68976 
3 1 6.97797 3.79305 6.97805 
40 1 10.0429 0.727532 10.0334 
41 1 8.51011 2.25851 8.51109 
42 1 9.22321 1.54804 9.21869 
7 1 6.18374 6.15822 4.61403 
8 1 7.68706 7.68435 3.08663 
9 1 6.98284 6.97063 3.80078 
43 1 10.02 10.0594 0.713671 
44 1 8.50492 8.51548 2.25465 
45 1 9.20518 9.23026 1.54161 
22 1 6.23864 6.22342 6.24145 
23 1 7.76871 7.7667 7.76697 
24 1 7.06027 7.05253 7.06083 
34 1 10.1003 10.1123 10.119 
35 1 8.59102 8.59163 8.59139 
36 1 9.29636 9.30338 9.30556 
ITEM: TIMESTEP
80
ITEM: NUMBER OF ATOMS
51
ITEM: BOX BOUNDS pp pp pp
0.0000000000000000e+00 1.1000000000000000e+01
0.0000000000000000e+00 1.1002000000000001e+01
0.0000000000000000e+00 1.1000000000000000e+01
ITEM: ATOMS id type x y z 
10 1 4.61178 4.59935 4.60657 
11 1 3.08831 3.08131 3.08935 
12 1 3.8005 3.79147 3.79762 
46 1 0.712113 0.749461 0.709433 
47 1 2.25159 2.26302 2.25272 
48 1 1.53997 1.56988 1.53545 
19 1 4.55438 4.53649 6.24506 
20 1 3.01158 3.0018 7.76831 
21 1 3.72222 3.71789 7.06368 
31 1 0.662174 0.676651 10.1258 
32 1 2.18255 2.18364 8.59121 
33 1 1.47397 1.48218 9.31164 
16 1 4.58802 6.17023 4.53105 
17 1 3.04376 7.66807 2.92221 
18 1 3.75082 6.96389 3.59737 
25 1 0.724606 10.0398 0.617625 
26 1 2.03177 8.74713 2.36669 
27 1 1.43223 9.32969 1.43986 
49 2 1.85786 9.0742 3.43075 
50 2 3.16046 9.9458 4.14516 
51 3 3.23729 9.23768 4.79275 
4 1 4.62412 6.15081 6.17941 
5 1 3.09414 7.67839 7.6759 
6 1 3.80678 6.96525 6.96857 
37 1 0.732257 10.0418 10.0249 
38 1 2.26225 8.50882 8.48683 
39 1 1.5528 9.21918 9.1998 
13 1 6.25605 4.52279 4.56702 
14 1 7.7713 3.00544 3.0058 
15 1 7.06541 3.70848 3.72642 
28 1 10.1295 0.639422 0.697303 
29 1 8.58716 2.17759 2.17921 
30 1 9.32204 1.47025 1.49092 
1 1 6.17723 4.59248 6.17023 
2 1 7.68913 3.08123 7.69412 
3 1 6.98106 3.78949 6.9766 
40 1 10.0477 0.71782 10.0244 
41 1 8.511 2.25358 8.51186 
42 1 9.22889 1.55005 9.22026 
7 1 6.1748 6.15838 4.60929 
8 1 7.68832 7.68372 3.08827 
9 1 6.97808 6.97167 3.79724 
43 1 10.0226 10.0562 0.712191 
44 1 8.50251 8.51363 2.25256 
45 1 9.19796 9.23665 1.54376 
22 1 6.23115 6.22659 6.24023 
23 1 7.76874 7.76367 7.76779 
24 1 7.05853 7.05088 7.05888 
34 1 10.0931 10.1159 10.118 
35 1 8.58813 8.59036 8.59271 
36 1 9.29428 9.30487 9.30324 
ITEM: TIMESTEP
90
ITEM: NUMBER OF ATOMS
51
ITEM: BOX BOUNDS pp pp pp
0.0000000000000000e+00 1.1000000000000000e+01
0.0000000000000000e+00 1.1002000000000001e+01
0.0000000000000000e+00 1.1000000000000000e+01
ITEM: ATOMS id type x y z 
10 1 4.60976 4.60444 4.6038 
11 1 3.08739 3.07871 3.08808 
12 1 3.79746 3.79447 3.79483 
46 1 0.712541 0.749515 0.708328 
47 1 2.25392 2.27035 2.25411 
48 1 1.54143 1.57032 1.53641 
19 1 4.55169 4.54551 6.24562 
20 1 3.01316 3.00613 7.76649 
21 1 3.7268 3.71631 7.06476 
31 1 0.661168 0.679552 10.125 
32 1 2.18448 2.18583 8.59474 
33 1 1.47199 1.48076 9.30868 
16 1 4.59185 6.16268 4.50587 
17 1 3.03418 7.6673 2.90789 
18 1 3.75222 6.95282 3.5655 
25 1 0.738252 10.0199 0.607928 
26 1 2.01394 8.75406 2.39195 
27 1 1.43305 9.32406 1.44929 
49 2 1.82298 9.10379 3.4489 
50 2 3.17938 9.97379 4.1709 
51 3 3.23235 9.24904 4.80175 
4 1 4.62958 6.14394 6.18019 
5 1 3.09384 7.67839 7.66548 
6 1 3.81238 6.96144 6.9685 
37 1 0.740207 10.0341 10.0315 
38 1 2.2624 8.50937 8.4828 
39 1 1.55674 9.21578 9.19936 
13 1 6.26283 4.51784 4.57518 
14 1 7.7675 3.00307 3.00325 
15 1 7.07259 3.70521 3.73355 
28 1 10.1384 0.629714 0.713721 
29 1 8.59512 2.17912 2.1805 
30 1 9.32076 1.46121 1.49509 
1 1 6.17944 4.58741 6.16252 
2 1 7.69093 3.07917 7.69491 
3 1 6.98122 3.7864 6.97961 
40 1 10.0554 0.713288 10.0194 
41 1 8.51391 2.25707 8.51486 
42 1 9.22968 1.5417 9.216 
7 1 6.16622 6.16112 4.60393 
8 1 7.68474 7.68397 3.08546 
9 1 6.98061 6.96972 3.79876 
43 1 10.0215 10.0593 0.712375 
44 1 8.49988 8.51901 2.25207 
45 1 9.19919 9.23631 1.54038 
22 1 6.22424 6.23072 6.23589 
23 1 7.76778 7.758 7.76457 
24 1 7.05155 7.05215 7.05983 
34 1 10.0921 10.1194 10.1169 
35 1 8.58766 8.58934 8.58888 
36 1 9.28653 9.30245 9.3077 
ITEM: TIMESTEP
100
ITEM: NUMBER OF ATOMS
51
ITEM: BOX BOUNDS pp pp pp
0.0000000000000000e+00 1.1000000000000000e+01
0.0000000000000000e+00 1.1002000000000001e+01
0.0000000000000000e+00 1.1000000000000000e+01
ITEM: ATOMS id type x y z 
10 1 4.60825 4.60586 4.60214 
11 1 3.08745 3.08034 3.08796 
12 1 3.79785 3.79374 3.79525 
46 1 0.714301 0.750069 0.708571 
47 1 2.25307 2.26989 2.25274 
48 1 1.54137 1.56878 1.53687 
19 1 4.55172 4.54576 6.24541 
20 1 3.014 3.0058 7.7675 
21 1 3.72515 3.71775 7.06379 
31 1 0.660844 0.679062 10.1244 
32 1 2.18473 2.18577 8.59439 
33 1 1.47235 1.48172 9.30869 
16 1 4.59232 6.16191 4.50198 
17 1 3.03303 7.6679 2.90813 
18 1 3.75236 6.9528 3.56437 
25 1 0.739104 10.0186 0.6077 
26 1 2.01268 8.75432 2.39434 
27 1 1.43316 9.32278 1.45006 
49 2 1.82028 9.10606 3.45004 
50 2 3.18129 9.97642 4.17351 
51 3 3.23179 9.24972 4.8023 
4 1 4.62977 6.1439 6.18127 
5 1 3.09333 7.67926 7.66414 
6 1 3.81272 6.96048 6.97011 
37 1 0.740067 10.0332 10.0331 
38 1 2.26253 8.50935 8.48199 
39 1 1.55759 9.21497 9.19979 
13 1 6.26425 4.51656 4.57783 
14 1 7.76908 3.00289 3.00438 
15 1 7.07112 3.70492 3.73253 
28 1 10.1403 0.630194 0.715652 
29 1 8.59619 2.18079 2.18103 
30 1 9.31844 1.45772 1.49624 
1 1 6.17958 4.58631 6.16156 
2 1 7.69003 3.07985 7.69626 
3 1 6.9826 3.78554 6.97671 
40 1 10.056 0.712091 10.0182 
41 1 8.51453 2.25712 8.51623 
42 1 9.23035 1.53963 9.21409 
7 1 6.16634 6.16132 4.60341 
8 1 7.68644 7.68376 3.08575 
9 1 6.97769 6.97182 3.79631 
43 1 10.0218 10.059 0.711286 
44 1 8.49893 8.51986 2.25207 
45 1 9.20025 9.23467 1.54046 
22 1 6.22226 6.23194 6.23596 
23 1 7.76657 7.75846 7.76555 
24 1 7.05274 7.05245 7.0579 
34 1 10.0909 10.1195 10.118 
35 1 8.58672 8.58895 8.59105 
36 1 9.28887 9.30343 9.30502 
ITEM: TIMESTEP
110
ITEM: NUMBER OF ATOMS
51
ITEM: BOX BOUNDS pp pp pp
0.0000000000000000e+00 1.1000000000000000e+01
0.0000000000000000e+00 1.1002000000000001e+01
0.0000000000000000e+00 1.1000000000000000e+01
ITEM: ATOMS id type x y z 
10 1 4.60685 4.60723 4.60116 
11 1 3.08674 3.08107 3.08738 
12 1 3.79815 3.79324 3.79494 
46 1 0.714595 0.750069 0.708219 
47 1 2.25294 2.26996 2.25223 
48 1 1.5415 1.56767 1.53732 
19 1 4.55101 4.54641 6.24503 
20 1 3.01426 3.00589 7.76797 
21 1 3.72461 3.71873 7.06341 
31 1 0.660658 0.678836 10.124 
32 1 2.18514 2.18572 8.59434 
33 1 1.47224 1.48222 9.30862 
16 1 4.59319 6.16112 4.49858 
17 1 3.0321 7.66835 2.90851 
18 1 3.75227 6.95291 3.56293 
25 1 0.740041 10.0174 0.607691 
26 1 2.01133 8.75458 2.3967 
27 1 1.43324 9.32166 1.45072 
49 2 1.8176 9.10834 3.45127 
50 2 3.18317 9.97903 4.17609 
51 3 3.23123 9.25042 4.80285 
4 1 4.6306 6.1432 6.18312 
5 1 3.09314 7.67949 7.66368 
6 1 3.81272 6.96046 6.97003 
37 1 0.740766 10.0322 10.0342 
38 1 2.26251 8.50944 8.48142 
39 1 1.55821 9.21446 9.20022 
13 1 6.26491 4.51543 4.57917 
14 1 7.7697 3.00279 3.00432 
15 1 7.07175 3.70472 3.7336 
28 1 10.1413 0.629302 0.717486 
29 1 8.59619 2.18037 2.18122 
30 1 9.31886 1.45686 1.4973 
1 1 6.18045 4.58503 6.15966 
2 1 7.69027 3.07999 7.69653 
3 1 6.98263 3.78503 6.97646 
40 1 10.0569 0.710959 10.0171 
41 1 8.51471 2.25686 8.5168 
42 1 9.23106 1.53874 9.21291 
7 1 6.1658 6.16226 4.60282 
8 1 7.68683 7.68405 3.08586 
9 1 6.97588 6.97259 3.79476 
43 1 10.0219 10.059 0.711152 
44 1 8.49862 8.52043 2.25214 
45 1 9.20114 9.23358 1.54013 
22 1 6.22115 6.23325 6.23504 
23 1 7.76618 7.75848 7.76566 
24 1 7.052 7.05309 7.05761 
34 1 10.0906 10.1199 10.1175 
35 1 8.58674 8.58872 8.59112 
36 1 9.28863 9.30342 9.30507 
ITEM: TIMESTEP
120
ITEM: NUMBER OF ATOMS
51
ITEM: BOX BOUNDS pp pp pp
0.0000000000000000e+00 1.1000000000000000e+01
0.0000000000000000e+00 1.1002000000000001e+01
0.0000000000000000e+00 1.1000000000000000e+01
ITEM: ATOMS id type x y z 
10 1 4.60448 4.60878 4.59964 
11 1 3.08633 3.08113 3.08605 
12 1 3.79632 3.79465 3.79374 
46 1 0.715165 0.749345 0.707826 
47 1 2.25318 2.26922 2.25164 
48 1 1.54088 1.567 1.5377 
19 1 4.54937 4.54828 6.24408 
20 1 3.01495 3.00662 7.76853 
21 1 3.72359 3.72037 7.06296 
31 1 0.659843 0.678952 10.1228 
32 1 2.18521 2.18626 8.59408 
33 1 1.47342 1.48213 9.30879 
16 1 4.59515 6.15941 4.49137 
17 1 3.0299 7.66954 2.90904 
18 1 3.75227 6.95288 3.55962 
25 1 0.742181 10.0147 0.60742 
26 1 2.0079 8.75546 2.40164 
27 1 1.4337 9.31916 1.45259 
49 2 1.81164 9.11351 3.45424 
50 2 3.18737 9.98482 4.18185 
51 3 3.22993 9.252 4.80409 
4 1 4.63298 6.14134 6.18725 
5 1 3.09277 7.68005 7.66254 
6 1 3.81286 6.96017 6.9704 
37 1 0.742678 10.0298 10.0364 
38 1 2.26271 8.50927 8.48061 
39 1 1.55885 9.21414 9.20045 
13 1 6.2671 4.51303 4.58217 
14 1 7.77121 3.00286 3.00451 
15 1 7.07307 3.70296 3.73518 
28 1 10.1437 0.627274 0.721548 
29 1 8.59638 2.1793 2.18178 
30 1 9.32001 1.45516 1.49945 
1 1 6.18191 4.5823 6.1561 
2 1 7.69035 3.08012 7.69726 
3 1 6.98356 3.78406 6.97528 
40 1 10.059 0.708564 10.0145 
41 1 8.51507 2.25633 8.51742 
42 1 9.23229 1.53722 9.21108 
7 1 6.16343 6.16465 4.6008 
8 1 7.68621 7.68476 3.08453 
9 1 6.97444 6.97476 3.7941 
43 1 10.0221 10.0589 0.711239 
44 1 8.4983 8.52104 2.25206 
45 1 9.20272 9.23182 1.53979 
22 1 6.21848 6.2362 6.23322 
23 1 7.76494 7.75855 7.76573 
24 1 7.05061 7.05421 7.05662 
34 1 10.0898 10.1205 10.1167 
35 1 8.58617 8.58775 8.59167 
36 1 9.28851 9.3037 9.30389 
ITEM: TIMESTEP
130
ITEM: NUMBER OF ATOMS
51
ITEM: BOX BOUNDS pp pp pp
0.0000000000000000e+00 1.1000000000000000e+01
0.0000000000000000e+00 1.1002000000000001e+01
0.0000000000000000e+00 1.1000000000000000e+01
ITEM: ATOMS id type x y z 
10 1 4.59714 4.61299 4.59621 
11 1 3.0845 3.08107 3.082 
12 1 3.79088 3.79874 3.78913 
46 1 0.716164 0.747479 0.707073 
47 1 2.25317 2.26732 2.25086 
48 1 1.54074 1.5653 1.53727 
19 1 4.54272 4.55451 6.23975 
20 1 3.01526 3.00976 7.76932 
21 1 3.72127 3.72469 7.06228 
31 1 0.659343 0.678539 10.1201 
32 1 2.18811 2.18669 8.59536 
33 1 1.4731 1.48328 9.30748 
16 1 4.6014 6.15312 4.46856 
17 1 3.02268 7.6736 2.91014 
18 1 3.75235 6.9524 3.54787 
25 1 0.74845 10.0052 0.606661 
26 1 1.99709 8.7576 2.42018 
27 1 1.43428 9.31252 1.45728 
49 2 1.7921 9.13075 3.46466 
50 2 3.20117 10.0037 4.20095 
51 3 3.22551 9.2575 4.80811 
4 1 4.63985 6.13504 6.2003 
5 1 3.0904 7.6817 7.65837 
6 1 3.81546 6.95909 6.97438 
37 1 0.747832 10.0238 10.0413 
38 1 2.26339 8.50934 8.47772 
39 1 1.561 9.21236 9.20119 
13 1 6.27307 4.50547 4.59054 
14 1 7.77443 3.00146 3.00555 
15 1 7.07919 3.69889 3.74118 
28 1 10.1513 0.620424 0.734581 
29 1 8.59862 2.17711 2.1837 
30 1 9.32264 1.44798 1.50688 
1 1 6.18833 4.5729 6.14284 
2 1 7.69195 3.08 7.6987 
3 1 6.98469 3.7808 6.97423 
40 1 10.0665 0.700535 10.0049 
41 1 8.51613 2.255 8.51756 
42 1 9.23597 1.53264 9.20586 
7 1 6.15606 6.17413 4.59685 
8 1 7.68331 7.68989 3.08209 
9 1 6.97113 6.97725 3.78863 
43 1 10.0245 10.056 0.710528 
44 1 8.50051 8.51987 2.25073 
45 1 9.20343 9.23262 1.53868 
22 1 6.21217 6.24528 6.22682 
23 1 7.76208 7.75843 7.76509 
24 1 7.04369 7.05893 7.05513 
34 1 10.089 10.1221 10.1135 
35 1 8.58557 8.5853 8.59144 
36 1 9.28538 9.30379 9.30343 
ITEM: TIMESTEP
140
ITEM: NUMBER OF ATOMS
51
ITEM: BOX BOUNDS pp pp pp
0.0000000000000000e+00 1.1000000000000000e+01
0.0000000000000000e+00 1.1002000000000001e+01
0.0000000000000000e+00 1.1000000000000000e+01
ITEM: ATOMS id type x y z 
10 1 4.59574 4.61389 4.59578 
11 1 3.0838 3.08179 3.08136 
12 1 3.79104 3.79783 3.78942 
46 1 0.715357 0.747637 0.707315 
47 1 2.25252 2.26744 2.25062 
48 1 1.54154 1.56425 1.53664 
19 1 4.54195 4.55516 6.23922 
20 1 3.01525 3.01039 7.76956 
21 1 3.72089 3.72484 7.06185 
31 1 0.659343 0.678791 10.1198 
32 1 2.18807 2.18739 8.59556 
33 1 1.47383 1.48255 9.30696 
16 1 4.60203 6.15261 4.46583 
17 1 3.02208 7.67391 2.91035 
18 1 3.75267 6.95184 3.5463 
25 1 0.749479 10.0039 0.606223 
26 1 1.99539 8.75819 2.42224 
27 1 1.43421 9.31189 1.45822 
49 2 1.78965 9.13304 3.46632 
50 2 3.20293 10.0061 4.20341 
51 3 3.22482 9.25845 4.80873 
4 1 4.64052 6.13467 6.20155 
5 1 3.09036 7.68225 7.65767 
6 1 3.81593 6.95789 6.97613 
37 1 0.748593 10.0236 10.0414 
38 1 2.26316 8.50993 8.47697 
39 1 1.56118 9.21153 9.20205 
13 1 6.27415 4.505 4.59154 
14 1 7.77533 3.00103 3.00595 
15 1 7.07932 3.69803 3.74159 
28 1 10.152 0.619076 0.736075 
29 1 8.59867 2.17592 2.18406 
30 1 9.32443 1.44825 1.50754 
1 1 6.18854 4.57222 6.14213 
2 1 7.69132 3.08014 7.69956 
3 1 6.9861 3.78002 6.97229 
40 1 10.067 0.700034 10.003 
41 1 8.51691 2.25411 8.51687 
42 1 9.2359 1.53316 9.20641 
7 1 6.15541 6.17439 4.59625 
8 1 7.68371 7.68913 3.08091 
9 1 6.97001 6.97974 3.78928 
43 1 10.0246 10.0565 0.710745 
44 1 8.49984 8.52006 2.25082 
45 1 9.20408 9.2321 1.53861 
22 1 6.21107 6.24589 6.2265 
23 1 7.76086 7.75876 7.7655 
24 1 7.04437 7.05922 7.05385 
34 1 10.0881 10.1219 10.1131 
35 1 8.5843 8.58527 8.59196 
36 1 9.28676 9.30324 9.30201 
ITEM: TIMESTEP
150
ITEM: NUMBER OF ATOMS
51
ITEM: BOX BOUNDS pp pp pp
0.0000000000000000e+00 1.1000000000000000e+01
0.0000000000000000e+00 1.1002000000000001e+01
0.0000000000000000e+00 1.1000000000000000e+01
ITEM: ATOMS id type x y z 
10 1 4.59351 4.61495 4.59514 
11 1 3.08254 3.08225 3.08048 
12 1 3.79009 3.79774 3.7887 
46 1 0.7157 0.746876 0.707086 
47 1 2.25278 2.26682 2.24976 
48 1 1.54092 1.56398 1.53616 
19 1 4.53997 4.55616 6.23764 
20 1 3.01511 3.01149 7.76983 
21 1 3.72031 3.72563 7.06166 
31 1 0.658967 0.678695 10.1184 
32 1 2.18843 2.18779 8.59544 
33 1 1.47411 1.48308 9.30696 
16 1 4.60371 6.15111 4.45959 
17 1 3.02035 7.67487 2.91085 
18 1 3.75313 6.95089 3.54229 
25 1 0.75126 10.001 0.605506 
26 1 1.99198 8.75905 2.42779 
27 1 1.43386 9.31047 1.46023 
49 2 1.78391 9.1384 3.47012 
50 2 3.20712 10.0118 4.20924 
51 3 3.22312 9.26071 4.81027 
4 1 4.6421 6.13286 6.20583 
5 1 3.09055 7.68239 7.65796 
6 1 3.8164 6.9576 6.97707 
37 1 0.750202 10.0224 10.0427 
38 1 2.26328 8.50984 8.476 
39 1 1.56123 9.21123 9.20165 
13 1 6.27591 4.50345 4.59374 
14 1 7.77638 2.99981 3.0073 
15 1 7.08076 3.69719 3.74284 
28 1 10.1539 0.617092 0.739158 
29 1 8.59986 2.17464 2.18539 
30 1 9.32584 1.44688 1.50933 
1 1 6.19031 4.57023 6.139 
2 1 7.69131 3.08001 7.70017 
3 1 6.98781 3.77815 6.96963 
40 1 10.0685 0.698217 10.0002 
41 1 8.51736 2.25373 8.51686 
42 1 9.2372 1.53201 9.20513 
7 1 6.15352 6.17675 4.59529 
8 1 7.68332 7.68971 3.08 
9 1 6.96871 6.98145 3.78843 
43 1 10.0253 10.0567 0.711075 
44 1 8.4999 8.52082 2.25073 
45 1 9.20431 9.2308 1.53723 
22 1 6.21027 6.24725 6.22484 
23 1 7.75979 7.75934 7.76516 
24 1 7.04279 7.06038 7.0533 
34 1 10.0876 10.1224 10.1113 
35 1 8.58358 8.58484 8.59181 
36 1 9.28602 9.30306 9.3017 
ITEM: TIMESTEP
160
ITEM: NUMBER OF ATOMS
51
ITEM: BOX BOUNDS pp pp pp
0.0000000000000000e+00 1.1000000000000000e+01
0.0000000000000000e+00 1.1002000000000001e+01
0.0000000000000000e+00 1.1000000000000000e+01
ITEM: ATOMS id type x y z 
10 1 4.59224 4.61553 4.59463 
11 1 3.08214 3.08201 3.07977 
12 1 3.78854 3.79846 3.78825 
46 1 0.715885 0.746296 0.706706 
47 1 2.2527 2.26662 2.24933 
48 1 1.54086 1.56362 1.53557 
19 1 4.53863 4.55713 6.2365 
20 1 3.01502 3.01224 7.77016 
21 1 3.71963 3.72627 7.06116 
31 1 0.658794 0.678628 10.1176 
32 1 2.18865 2.18812 8.59547 
33 1 1.47432 1.48331 9.30686 
16 1 4.60473 6.14982 4.45535 
17 1 3.01907 7.67555 2.91122 
18 1 3.75351 6.9503 3.53964 
25 1 0.752481 9.99893 0.605331 
26 1 1.98953 8.75973 2.4319 
27 1 1.43354 9.30947 1.46178 
49 2 1.77982 9.14222 3.47275 
50 2 3.21019 10.016 4.21349 
51 3 3.22183 9.26236 4.81141 
4 1 4.64322 6.1317 6.20805 
5 1 3.09051 7.68271 7.65747 
6 1 3.81727 6.95659 6.97894 
37 1 0.751129 10.0215 10.0433 
38 1 2.26304 8.51 8.47528 
39 1 1.56175 9.2109 9.2018 
13 1 6.27706 4.50226 4.59474 
14 1 7.77745 2.99877 3.0082 
15 1 7.08166 3.69644 3.74386 
28 1 10.1553 0.615692 0.741539 
29 1 8.60065 2.17381 2.18654 
30 1 9.32682 1.44592 1.51064 
1 1 6.19175 4.56855 6.13689 
2 1 7.69154 3.07945 7.70006 
3 1 6.98897 3.77738 6.96844 
40 1 10.0698 0.696823 9.9981 
41 1 8.51771 2.25349 8.51661 
42 1 9.2377 1.53141 9.20439 
7 1 6.15211 6.17841 4.59449 
8 1 7.68319 7.69035 3.07928 
9 1 6.96777 6.98297 3.78779 
43 1 10.0257 10.056 0.710375 
44 1 8.4997 8.52068 2.24983 
45 1 9.20504 9.23102 1.53744 
22 1 6.20922 6.24838 6.22394 
23 1 7.75874 7.75972 7.76502 
24 1 7.04209 7.0611 7.05266 
34 1 10.0874 10.1226 10.1105 
35 1 8.58304 8.58451 8.59186 
36 1 9.28553 9.30332 9.30104 
ITEM: TIMESTEP
170
ITEM: NUMBER OF ATOMS
51
ITEM: BOX BOUNDS pp pp pp
0.0000000000000000e+00 1.1000000000000000e+01
0.0000000000000000e+00 1.1002000000000001e+01
0.0000000000000000e+00 1.1000000000000000e+01
ITEM: ATOMS id type x y z 
10 1 4.5916 4.61576 4.59446 
11 1 3.08195 3.08178 3.07958 
12 1 3.78776 3.79904 3.78777 
46 1 0.715758 0.746174 0.706623 
47 1 2.25242 2.26666 2.24908 
48 1 1.54123 1.56317 1.53531 
19 1 4.538 4.55754 6.23599 
20 1 3.01498 3.01267 7.77035 
21 1 3.71927 3.72651 7.06078 
31 1 0.658921 0.678643 10.1173 