ITEM: TIMESTEP
0
ITEM: NUMBER OF ATOMS
33
ITEM: BOX BOUNDS pp pp pp
0.0000000000000000e+00 7.0970000000000004e+00
0.0000000000000000e+00 7.0970000000000004e+00
0.0000000000000000e+00 2.4588000000000001e+01
ITEM: ATOMS id type x y z 
2 1 3.339 1.632 13.319 
5 1 4.651 1.581 18.133 
7 1 3.391 1.602 15.981 
8 1 2.166 1.581 18.134 
18 1 3.408 1.581 17.416 
21 1 3.338 2.875 12.602 
23 1 3.367 1.619 14.753 
24 1 3.338 0.39 12.601 
17 1 7.023 2.875 24.28 
19 1 6.997 1.619 22.129 
20 1 7.023 0.39 24.281 
22 1 6.957 1.581 19.466 
25 1 5.714 1.581 18.748 
27 1 6.974 1.602 20.9 
28 1 1.102 1.581 18.748 
30 1 7.024 1.631 23.563 
10 1 6.954 5.232 5.122 
13 1 7.023 3.938 0.307 
15 1 6.994 5.194 2.459 
16 1 7.023 6.423 0.307 
26 1 7.022 5.181 1.025 
29 1 5.711 5.232 5.839 
31 1 6.97 5.211 3.688 
32 1 1.098 5.232 5.84 
1 1 4.647 5.232 6.454 
3 1 3.388 5.211 8.606 
4 1 2.163 5.232 6.454 
6 1 3.338 5.182 11.269 
9 1 3.338 3.939 11.986 
11 1 3.365 5.194 9.834 
12 1 3.338 6.423 11.987 
14 1 3.404 5.232 7.171 
33 2 4.438 6.423 11.987 
ITEM: TIMESTEP
10
ITEM: NUMBER OF ATOMS
33
ITEM: BOX BOUNDS pp pp pp
0.0000000000000000e+00 7.0970000000000004e+00
0.0000000000000000e+00 7.0970000000000004e+00
0.0000000000000000e+00 2.4588000000000001e+01
ITEM: ATOMS id type x y z 
2 1 3.3279 1.66122 13.3263 
5 1 4.65593 1.58101 18.1352 
7 1 3.39437 1.60207 15.9968 
8 1 2.16179 1.58085 18.1373 
18 1 3.4081 1.58069 17.4282 
21 1 3.3351 2.88775 12.5979 
23 1 3.36389 1.62078 14.7784 
24 1 3.27748 0.446942 12.6168 
17 1 7.0232 2.8799 24.2789 
19 1 6.99711 1.61937 22.1245 
20 1 7.0234 0.388534 24.2861 
22 1 6.95704 1.58112 19.4663 
25 1 5.71194 1.581 18.7477 
27 1 6.97338 1.60177 20.9046 
28 1 1.10353 1.58092 18.7462 
30 1 7.02389 1.6311 23.5627 
10 1 6.95388 5.23151 5.12142 
13 1 7.02248 3.93299 0.308307 
15 1 6.99353 5.19358 2.46331 
16 1 7.02299 6.4241 0.302014 
26 1 7.02245 5.18142 1.02519 
29 1 5.70695 5.23287 5.83959 
31 1 6.9699 5.21125 3.68346 
32 1 1.10227 5.23196 5.84314 
1 1 4.65268 5.23184 6.4523 
3 1 3.39055 5.21151 8.59336 
4 1 2.15676 5.23191 6.44976 
6 1 3.32627 5.12517 11.2147 
9 1 3.33806 3.94561 11.9795 
11 1 3.3619 5.19194 9.82469 
12 1 3.33763 6.4453 12.0289 
14 1 3.40452 5.23221 7.17805 
33 2 4.52512 6.35181 11.9474 
ITEM: TIMESTEP
20
ITEM: NUMBER OF ATOMS
33
ITEM: BOX BOUNDS pp pp pp
0.0000000000000000e+00 7.0970000000000004e+00
0.0000000000000000e+00 7.0970000000000004e+00
0.0000000000000000e+00 2.4588000000000001e+01
ITEM: ATOMS id type x y z 
2 1 3.29009 1.69889 13.3577 
5 1 4.6627 1.58007 18.1412 
7 1 3.40679 1.60563 16.0175 
8 1 2.15904 1.57849 18.1477 
18 1 3.4096 1.57893 17.4528 
21 1 3.30763 2.9234 12.6208 
23 1 3.34882 1.63195 14.801 
24 1 3.1989 0.429283 12.6347 
17 1 7.04889 2.8833 24.2756 
19 1 7.00848 1.62354 22.1362 
20 1 7.05002 0.39009 24.2914 
22 1 6.9592 1.58389 19.4782 
25 1 5.71457 1.57807 18.7605 
27 1 6.96554 1.59999 20.9163 
28 1 1.09637 1.57968 18.7481 
30 1 7.0035 1.63114 23.5704 
10 1 6.95474 5.22828 5.10849 
13 1 6.99718 3.93059 0.313189 
15 1 6.97915 5.18989 2.45335 
16 1 6.99747 6.42139 0.297068 
26 1 7.04469 5.18209 1.02186 
29 1 5.71826 5.2372 5.82911 
31 1 6.97652 5.21108 3.67479 
32 1 1.08348 5.23342 5.84012 
1 1 4.66376 5.23055 6.44631 
3 1 3.4036 5.20458 8.57784 
4 1 2.15434 5.23735 6.43343 
6 1 3.25328 5.13332 11.1928 
9 1 3.30648 3.93849 11.9415 
11 1 3.33378 5.17493 9.80324 
12 1 3.53921 6.4628 12.0375 
14 1 3.4062 5.23806 7.14711 
33 2 4.5837 6.28169 11.9213 
ITEM: TIMESTEP
30
ITEM: NUMBER OF ATOMS
33
ITEM: BOX BOUNDS pp pp pp
0.0000000000000000e+00 7.0970000000000004e+00
0.0000000000000000e+00 7.0970000000000004e+00
0.0000000000000000e+00 2.4588000000000001e+01
ITEM: ATOMS id type x y z 
2 1 3.27539 1.68232 13.3435 
5 1 4.66418 1.57964 18.1436 
7 1 3.40526 1.60674 16.0119 
8 1 2.1583 1.57854 18.149 
18 1 3.41055 1.5771 17.454 
21 1 3.3103 2.9268 12.6202 
23 1 3.35039 1.63577 14.8002 
24 1 3.1971 0.436196 12.6369 
17 1 7.02861 2.88446 24.2735 
19 1 6.99583 1.6237 22.1346 
20 1 7.029 0.392286 24.2942 
22 1 6.95796 1.58082 19.4795 
25 1 5.7164 1.57915 18.7638 
27 1 6.97265 1.60266 20.9145 
28 1 1.09504 1.58014 18.75 
30 1 7.02219 1.63116 23.5689 
10 1 6.9547 5.23095 5.10826 
13 1 7.01794 3.92895 0.315378 
15 1 6.99216 5.18825 2.45438 
16 1 7.01896 6.41993 0.294207 
26 1 7.02565 5.18195 1.0207 
29 1 5.71157 5.23256 5.82839 
31 1 6.96911 5.21065 3.67466 
32 1 1.09146 5.2345 5.84259 
1 1 4.66128 5.23466 6.44864 
3 1 3.4019 5.20443 8.57595 
4 1 2.15763 5.23586 6.43552 
6 1 3.25023 5.1429 11.1999 
9 1 3.28834 3.93912 11.9396 
11 1 3.33088 5.17367 9.80532 
12 1 3.52727 6.47525 12.0425 
14 1 3.40627 5.23837 7.15331 
33 2 4.6315 6.26252 11.9114 
ITEM: TIMESTEP
40
ITEM: NUMBER OF ATOMS
33
ITEM: BOX BOUNDS pp pp pp
0.0000000000000000e+00 7.0970000000000004e+00
0.0000000000000000e+00 7.0970000000000004e+00
0.0000000000000000e+00 2.4588000000000001e+01
ITEM: ATOMS id type x y z 
2 1 3.24779 1.68348 13.3359 
5 1 4.66067 1.58079 18.1504 
7 1 3.41107 1.61017 16.0018 
8 1 2.16028 1.57576 18.1515 
18 1 3.41204 1.57665 17.452 
21 1 3.29393 2.93194 12.6174 
23 1 3.33668 1.64426 14.7955 
24 1 3.18816 0.432264 12.6264 
17 1 7.0195 2.87886 24.2777 
19 1 6.99958 1.6234 22.1378 
20 1 7.02182 0.391134 24.2904 
22 1 6.95797 1.58497 19.4801 
25 1 5.71638 1.57432 18.7632 
27 1 6.97063 1.60102 20.9164 
28 1 1.09844 1.57938 18.7506 
30 1 7.02577 1.6359 23.5731 
10 1 6.9528 5.22773 5.11101 
13 1 7.02804 3.93457 0.311484 
15 1 6.98788 5.18963 2.45369 
16 1 7.02713 6.42113 0.298414 
26 1 7.02238 5.17714 1.01757 
29 1 5.71072 5.23828 5.82822 
31 1 6.97134 5.21036 3.67591 
32 1 1.09827 5.23581 5.8399 
1 1 4.65828 5.23374 6.44555 
3 1 3.38933 5.20278 8.58997 
4 1 2.15843 5.23564 6.43854 
6 1 3.22919 5.15654 11.2082 
9 1 3.26411 3.94909 11.9425 
11 1 3.3357 5.17842 9.81438 
12 1 3.57729 6.48116 12.0411 
14 1 3.40952 5.23699 7.16273 
33 2 4.68487 6.21871 11.8898 
ITEM: TIMESTEP
50
ITEM: NUMBER OF ATOMS
33
ITEM: BOX BOUNDS pp pp pp
0.0000000000000000e+00 7.0970000000000004e+00
0.0000000000000000e+00 7.0970000000000004e+00
0.0000000000000000e+00 2.4588000000000001e+01
ITEM: ATOMS id type x y z 
2 1 3.23912 1.6809 13.3328 
5 1 4.65972 1.57688 18.1509 
7 1 3.41093 1.61168 16.001 
8 1 2.16173 1.5768 18.1505 
18 1 3.41222 1.57611 17.4491 
21 1 3.28648 2.93279 12.6166 
23 1 3.33486 1.64575 14.7922 
24 1 3.19413 0.431415 12.6238 
17 1 7.02412 2.88083 24.2792 
19 1 6.99629 1.62237 22.1368 
20 1 7.02481 0.390077 24.2909 
22 1 6.95876 1.58165 19.4798 
25 1 5.71588 1.57865 18.7641 
27 1 6.97219 1.6035 20.9168 
28 1 1.09888 1.5793 18.7516 
30 1 7.0252 1.63407 23.5727 
10 1 6.9547 5.23103 5.1117 
13 1 7.02366 3.93319 0.310447 
15 1 6.99323 5.1895 2.45561 
16 1 7.02443 6.42181 0.298226 
26 1 7.02241 5.17925 1.01877 
29 1 5.70945 5.23517 5.82714 
31 1 6.96751 5.20869 3.6755 
32 1 1.0982 5.23473 5.83889 
1 1 4.65764 5.23597 6.44658 
3 1 3.39306 5.20319 8.59076 
4 1 2.16061 5.23577 6.44006 
6 1 3.23021 5.15945 11.2146 
9 1 3.25972 3.95148 11.9449 
11 1 3.32487 5.18034 9.81627 
12 1 3.58794 6.48314 12.0406 
14 1 3.4088 5.23628 7.16428 
33 2 4.69427 6.21025 11.8859 
ITEM: TIMESTEP
60
ITEM: NUMBER OF ATOMS
33
ITEM: BOX BOUNDS pp pp pp
0.0000000000000000e+00 7.0970000000000004e+00
0.0000000000000000e+00 7.0970000000000004e+00
0.0000000000000000e+00 2.4588000000000001e+01
ITEM: ATOMS id type x y z 
2 1 3.14794 1.66557 13.3138 
5 1 4.64947 1.58397 18.1584 
7 1 3.40903 1.62593 15.9773 
8 1 2.16811 1.54265 18.1383 
18 1 3.41779 1.5809 17.4229 
21 1 3.18819 2.9312 12.6108 
23 1 3.30382 1.66157 14.7701 
24 1 3.30657 0.43088 12.6018 
17 1 7.02429 2.87854 24.291 
19 1 6.9974 1.62223 22.1288 
20 1 7.02452 0.38615 24.2879 
22 1 6.96166 1.58082 19.4733 
25 1 5.70924 1.57245 18.7644 
27 1 6.97263 1.60151 20.908 
28 1 1.11721 1.59883 18.7562 
30 1 7.02686 1.62468 23.5634 
10 1 6.95748 5.24254 5.11968 
13 1 7.02569 3.93944 0.302627 
15 1 6.98595 5.19278 2.46805 
16 1 7.02453 6.42294 0.305593 
26 1 7.02641 5.18668 1.03839 
29 1 5.70385 5.23002 5.83173 
31 1 6.97314 5.2073 3.68997 
32 1 1.1152 5.23339 5.83953 
1 1 4.65099 5.22679 6.44757 
3 1 3.39058 5.21279 8.61586 
4 1 2.1662 5.23144 6.44809 
6 1 3.21042 5.17899 11.2249 
9 1 3.22449 3.97421 11.9791 
11 1 3.26644 5.19518 9.84016 
12 1 3.69251 6.47839 12.0216 
14 1 3.40744 5.23849 7.18627 
33 2 4.77994 6.15275 11.8634 
ITEM: TIMESTEP
70
ITEM: NUMBER OF ATOMS
33
ITEM: BOX BOUNDS pp pp pp
0.0000000000000000e+00 7.0970000000000004e+00
0.0000000000000000e+00 7.0970000000000004e+00
0.0000000000000000e+00 2.4588000000000001e+01
ITEM: ATOMS id type x y z 
2 1 3.14023 1.66289 13.3082 
5 1 4.64968 1.578 18.1578 
7 1 3.40851 1.6283 15.9746 
8 1 2.16748 1.55247 18.137 
18 1 3.42005 1.57885 17.4221 
21 1 3.18579 2.92885 12.6082 
23 1 3.29856 1.66151 14.7656 
24 1 3.31887 0.433703 12.6036 
17 1 7.02575 2.87767 24.2904 
19 1 6.99721 1.62116 22.1287 
20 1 7.02539 0.385766 24.2873 
22 1 6.96087 1.58156 19.4715 
25 1 5.70891 1.579 18.7657 
27 1 6.97296 1.60282 20.9083 
28 1 1.11856 1.5881 18.7569 
30 1 7.02571 1.62884 23.5656 
10 1 6.95868 5.23748 5.12449 
13 1 7.02515 3.93887 0.303044 
15 1 6.99252 5.18871 2.46948 
16 1 7.02485 6.42372 0.30654 
26 1 7.02321 5.18453 1.03369 
29 1 5.70412 5.23066 5.83249 
31 1 6.96881 5.21273 3.68999 
32 1 1.11212 5.23485 5.83711 
1 1 4.64934 5.22981 6.44793 
3 1 3.38133 5.21612 8.6137 
4 1 2.16901 5.23356 6.45031 
6 1 3.20823 5.18524 11.2396 
9 1 3.21 3.9766 11.9849 
11 1 3.27514 5.19119 9.83555 
12 1 3.70153 6.47804 12.0186 
14 1 3.41041 5.23383 7.18908 
33 2 4.78703 6.14656 11.861 
ITEM: TIMESTEP
80
ITEM: NUMBER OF ATOMS
33
ITEM: BOX BOUNDS pp pp pp
0.0000000000000000e+00 7.0970000000000004e+00
0.0000000000000000e+00 7.0970000000000004e+00
0.0000000000000000e+00 2.4588000000000001e+01
ITEM: ATOMS id type x y z 
2 1 3.13877 1.66135 13.3051 
5 1 4.65054 1.57737 18.1566 
7 1 3.4074 1.62913 15.9726 
8 1 2.16719 1.5669 18.1341 
18 1 3.41978 1.57442 17.4235 
21 1 3.18338 2.92903 12.6067 
23 1 3.29509 1.66064 14.7654 
24 1 3.32672 0.434441 12.6045 
17 1 7.02569 2.87755 24.2893 
19 1 6.99727 1.62062 22.129 
20 1 7.02531 0.385954 24.2871 
22 1 6.96142 1.58453 19.4701 
25 1 5.70926 1.58051 18.7657 
27 1 6.97308 1.60377 20.9089 
28 1 1.11881 1.5739 18.7587 
30 1 7.026 1.63119 23.5673 
10 1 6.95793 5.23589 5.12591 
13 1 7.02491 3.93835 0.304218 
15 1 6.99352 5.19006 2.469 
16 1 7.02454 6.42445 0.306741 
26 1 7.02316 5.18166 1.03115 
29 1 5.70394 5.23235 5.83331 
31 1 6.96854 5.21086 3.68926 
32 1 1.1135 5.23532 5.83871 
1 1 4.65053 5.23182 6.44862 
3 1 3.37249 5.21565 8.61687 
4 1 2.16822 5.23425 6.45035 
6 1 3.20753 5.18854 11.2428 
9 1 3.19946 3.97913 11.9859 
11 1 3.28642 5.18825 9.83813 
12 1 3.7053 6.47801 12.0174 
14 1 3.41007 5.23272 7.18642 
33 2 4.79025 6.1434 11.8597 
ITEM: TIMESTEP
90
ITEM: NUMBER OF ATOMS
33
ITEM: BOX BOUNDS pp pp pp
0.0000000000000000e+00 7.0970000000000004e+00
0.0000000000000000e+00 7.0970000000000004e+00
0.0000000000000000e+00 2.4588000000000001e+01
ITEM: ATOMS id type x y z 
2 1 3.13767 1.66118 13.3035 
5 1 4.65118 1.57715 18.1559 
7 1 3.4059 1.6291 15.9715 
8 1 2.16805 1.57069 18.1341 
18 1 3.4181 1.57296 17.4237 
21 1 3.17763 2.93054 12.6068 
23 1 3.29257 1.66012 14.7651 
24 1 3.3336 0.435303 12.6046 
17 1 7.0256 2.87764 24.2886 
19 1 6.99738 1.62061 22.129 
20 1 7.02528 0.386032 24.2872 
22 1 6.96307 1.58329 19.4698 
25 1 5.70941 1.58045 18.7653 
27 1 6.97316 1.60398 20.9089 
28 1 1.11849 1.57354 18.7573 
30 1 7.02611 1.63181 23.5677 
10 1 6.958 5.23517 5.12625 
13 1 7.02482 3.93782 0.304959 
15 1 6.99355 5.19023 2.4687 
16 1 7.02448 6.42462 0.30688 
26 1 7.02327 5.18104 1.03038 
29 1 5.70397 5.23312 5.83416 
31 1 6.96876 5.21083 3.68887 
32 1 1.11244 5.23493 5.83887 
1 1 4.65107 5.23287 6.44969 
3 1 3.36915 5.2121 8.61684 
4 1 2.16853 5.23441 6.45077 
6 1 3.20751 5.18943 11.2448 
9 1 3.1952 3.97831 11.9851 
11 1 3.28929 5.19082 9.84158 
12 1 3.70945 6.4779 12.0167 
14 1 3.41 5.23327 7.18695 
33 2 4.79327 6.14074 11.8585 
ITEM: TIMESTEP
100
ITEM: NUMBER OF ATOMS
33
ITEM: BOX BOUNDS pp pp pp
0.0000000000000000e+00 7.0970000000000004e+00
0.0000000000000000e+00 7.0970000000000004e+00
0.0000000000000000e+00 2.4588000000000001e+01
ITEM: ATOMS id type x y z 
2 1 3.12096 1.65788 13.2925 
5 1 4.65651 1.5728 18.1469 
7 1 3.3861 1.62659 15.9633 
8 1 2.17654 1.58535 18.1395 
18 1 3.41285 1.57225 17.4195 
21 1 3.11995 2.93382 12.6089 
23 1 3.26674 1.6543 14.7588 
24 1 3.40914 0.446812 12.6051 
17 1 7.025 2.87914 24.2828 
19 1 6.99818 1.62463 22.1275 
20 1 7.02563 0.387496 24.2886 
22 1 6.97208 1.5733 19.4657 
25 1 5.71142 1.5735 18.76 
27 1 6.97524 1.5983 20.908 
28 1 1.11355 1.59131 18.7421 
30 1 7.02644 1.63382 23.5677 
10 1 6.95812 5.23072 5.12803 
13 1 7.02372 3.93264 0.311966 
15 1 6.99497 5.19262 2.46699 
16 1 7.0246 6.426 0.307691 
26 1 7.02326 5.17828 1.02636 
29 1 5.70508 5.23984 5.84356 
31 1 6.97052 5.2089 3.68676 
32 1 1.10899 5.23254 5.84481 
1 1 4.6549 5.23855 6.46436 
3 1 3.34514 5.19366 8.6313 
4 1 2.16566 5.23445 6.45258 
6 1 3.21407 5.19978 11.2598 
9 1 3.14749 3.97524 11.9758 
11 1 3.2971 5.2143 9.85666 
12 1 3.75861 6.48015 12.0135 
14 1 3.40822 5.23191 7.19686 
33 2 4.82925 6.11112 11.8452 
ITEM: TIMESTEP
110
ITEM: NUMBER OF ATOMS
33
ITEM: BOX BOUNDS pp pp pp
0.0000000000000000e+00 7.0970000000000004e+00
0.0000000000000000e+00 7.0970000000000004e+00
0.0000000000000000e+00 2.4588000000000001e+01
ITEM: ATOMS id type x y z 
2 1 3.11534 1.65165 13.2917 
5 1 4.65618 1.57492 18.1449 
7 1 3.38021 1.62511 15.9615 
8 1 2.17756 1.58102 18.1411 
18 1 3.42133 1.58005 17.4162 
21 1 3.11539 2.93358 12.6061 
23 1 3.264 1.65309 14.7562 
24 1 3.41694 0.447321 12.6085 
17 1 7.02533 2.87968 24.2834 
19 1 6.9988 1.6214 22.1258 
20 1 7.02527 0.387646 24.2889 
22 1 6.96405 1.57891 19.4662 
25 1 5.71208 1.57396 18.7588 
27 1 6.97617 1.60235 20.9057 
28 1 1.11308 1.58068 18.738 
30 1 7.02591 1.63165 23.5648 
10 1 6.95589 5.23543 5.12937 
13 1 7.02453 3.93285 0.311773 
15 1 6.99458 5.19107 2.47009 
16 1 7.02452 6.4255 0.307213 
26 1 7.02314 5.18108 1.03072 
29 1 5.70189 5.23483 5.84331 
31 1 6.97009 5.21092 3.69019 
32 1 1.11236 5.23355 5.84434 
1 1 4.65632 5.233 6.47129 
3 1 3.35204 5.21482 8.62967 
4 1 2.16739 5.23196 6.4557 
6 1 3.21069 5.20795 11.2626 
9 1 3.15416 3.9751 11.9762 
11 1 3.28196 5.20213 9.85504 
12 1 3.76618 6.48256 12.0136 
14 1 3.40474 5.22875 7.19619 
33 2 4.83788 6.10748 11.8438 
ITEM: TIMESTEP
114
ITEM: NUMBER OF ATOMS
33
ITEM: BOX BOUNDS pp pp pp
0.0000000000000000e+00 7.0970000000000004e+00
0.0000000000000000e+00 7.0970000000000004e+00
0.0000000000000000e+00 2.4588000000000001e+01
ITEM: ATOMS id type x y z 
2 1 3.11493 1.65162 13.2915 
5 1 4.65619 1.57546 18.1448 
7 1 3.37996 1.62516 15.9612 
8 1 2.17755 1.58082 18.1409 
18 1 3.42093 1.57988 17.4161 
21 1 3.1156 2.9334 12.6058 
23 1 3.26347 1.65292 14.7561 
24 1 3.41765 0.447466 12.6085 
17 1 7.0253 2.87971 24.2835 
19 1 6.99885 1.62145 22.1257 
20 1 7.02531 0.387597 24.2889 
22 1 6.96442 1.57869 19.4658 
25 1 5.71202 1.5743 18.7587 
27 1 6.97621 1.60219 20.9057 
28 1 1.11323 1.58058 18.7381 
30 1 7.02591 1.63174 23.5649 
10 1 6.95593 5.23539 5.12954 
13 1 7.02448 3.93291 0.311797 
15 1 6.99448 5.19102 2.47026 
16 1 7.02448 6.4255 0.307251 
26 1 7.02324 5.18095 1.03078 
29 1 5.70213 5.23483 5.84352 
31 1 6.97013 5.21109 3.69036 
32 1 1.11149 5.23363 5.84395 
1 1 4.65622 5.23283 6.4714 
3 1 3.35176 5.21464 8.63004 
4 1 2.16753 5.23184 6.45583 
6 1 3.21045 5.20761 11.2623 
9 1 3.15379 3.97588 11.9765 
11 1 3.282 5.2025 9.85538 
12 1 3.76687 6.4822 12.0134 
14 1 3.40519 5.22894 7.19689 
33 2 4.83831 6.10725 11.8437 
ITEM: TIMESTEP
115
ITEM: NUMBER OF ATOMS
33
ITEM: BOX BOUNDS pp pp pp
0.0000000000000000e+00 7.0970000000000004e+00
0.0000000000000000e+00 7.0970000000000004e+00
0.0000000000000000e+00 2.4588000000000001e+01
ITEM: ATOMS id type x y z 
2 1 3.11493 1.65162 13.2915 
5 1 4.65619 1.57546 18.1448 
7 1 3.37996 1.62516 15.9612 
8 1 2.17755 1.58082 18.1409 
18 1 3.42093 1.57988 17.4161 
21 1 3.1156 2.9334 12.6058 
23 1 3.26347 1.65292 14.7561 
24 1 3.41765 0.447466 12.6085 
17 1 7.0253 2.87971 24.2835 
19 1 6.99885 1.62145 22.1257 
20 1 7.02531 0.387597 24.2889 
22 1 6.96442 1.57869 19.4658 
25 1 5.71202 1.5743 18.7587 
27 1 6.97621 1.60219 20.9057 
28 1 1.11323 1.58058 18.7381 
30 1 7.02591 1.63174 23.5649 
10 1 6.95593 5.23539 5.12954 
13 1 7.02448 3.93291 0.311797 
15 1 6.99448 5.19102 2.47026 
16 1 7.02448 6.4255 0.307251 
26 1 7.02324 5.18095 1.03078 
29 1 5.70213 5.23483 5.84352 
31 1 6.97013 5.21109 3.69036 
32 1 1.11149 5.23363 5.84395 
1 1 4.65622 5.23283 6.4714 
3 1 3.35176 5.21464 8.63004 
4 1 2.16753 5.23184 6.45583 
6 1 3.21045 5.20761 11.2623 
9 1 3.15379 3.97588 11.9765 
11 1 3.282 5.2025 9.85538 
12 1 3.76687 6.4822 12.0134 
14 1 3.40519 5.22894 7.19689 
33 2 4.83831 6.10725 11.8437 
ITEM: TIMESTEP
120
ITEM: NUMBER OF ATOMS
33
ITEM: BOX BOUNDS pp pp pp
-1.0800477024125845e-03 7.0980800477024140e+00
-7.5674272590550056e-04 7.0977567427259070e+00
-6.1470000000000006e-03 2.4594147000000000e+01
ITEM: ATOMS id type x y z 
2 1 3.11479 1.65123 13.292 
5 1 4.65654 1.57505 18.1477 
7 1 3.3799 1.62475 15.963 
8 1 2.17713 1.5804 18.1438 
18 1 3.42089 1.57946 17.4187 
21 1 3.11547 2.93334 12.6059 
23 1 3.26338 1.65251 14.7573 
24 1 3.41763 0.446791 12.6087 
17 1 7.02636 2.87957 24.2895 
19 1 6.9999 1.62104 22.1306 
20 1 7.02636 0.386916 24.2949 
22 1 6.96546 1.57827 19.4694 
25 1 5.71267 1.57389 18.7619 
27 1 6.97725 1.60177 20.91 
28 1 1.1125 1.58016 18.7414 
30 1 7.02697 1.63133 23.5705 
10 1 6.95697 5.23575 5.12596 
13 1 7.02554 3.93299 0.305803 
15 1 6.99553 5.19137 2.46537 
16 1 7.02554 6.42612 0.301255 
26 1 7.0243 5.1813 1.02515 
29 1 5.70278 5.23519 5.84031 
31 1 6.97117 5.21145 3.68605 
32 1 1.11084 5.23398 5.84078 
1 1 4.65656 5.23319 6.46849 
3 1 3.35169 5.215 8.62828 
4 1 2.16703 5.2322 6.45286 
6 1 3.21034 5.20796 11.2618 
9 1 3.15366 3.9759 11.9764 
11 1 3.28193 5.20286 9.8541 
12 1 3.76694 6.48283 12.0133 
14 1 3.40513 5.2293 7.19435 
33 2 4.83871 6.10779 11.8434 
ITEM: TIMESTEP
130
ITEM: NUMBER OF ATOMS
33
ITEM: BOX BOUNDS pp pp pp
-3.4090012079492985e-03 7.1004090012079510e+00
-2.5353987722903900e-03 7.0995353987722920e+00
-1.2940442784515506e-02 2.4600940442784516e+01
ITEM: ATOMS id type x y z 
2 1 3.11451 1.65041 13.2926 
5 1 4.65746 1.57412 18.151 
7 1 3.37967 1.6238 15.9644 
8 1 2.17605 1.57939 18.1471 
18 1 3.42074 1.57846 17.4215 
21 1 3.11523 2.93349 12.6057 
23 1 3.26314 1.65153 14.7591 
24 1 3.41774 0.445021 12.6087 
17 1 7.02863 2.8794 24.2962 
19 1 7.00217 1.62008 22.1358 
20 1 7.02864 0.385163 24.3016 
22 1 6.96776 1.57725 19.4733 
25 1 5.71389 1.57296 18.7654 
27 1 6.97952 1.60078 20.915 
28 1 1.1111 1.57915 18.7448 
30 1 7.02925 1.63039 23.5767 
10 1 6.9592 5.2366 5.12201 
13 1 7.02781 3.93303 0.299091 
15 1 6.99778 5.1922 2.46023 
16 1 7.02782 6.42772 0.294548 
26 1 7.02658 5.1821 1.01895 
29 1 5.70376 5.23603 5.83706 
31 1 6.97343 5.21229 3.68106 
32 1 1.10993 5.23482 5.83763 
1 1 4.65763 5.23401 6.46506 
3 1 3.35148 5.21581 8.62696 
4 1 2.16553 5.23304 6.44929 
6 1 3.21014 5.20882 11.2612 
9 1 3.15334 3.97558 11.9766 
11 1 3.2818 5.20375 9.85203 
12 1 3.76706 6.48442 12.0132 
14 1 3.405 5.23015 7.19162 
33 2 4.83958 6.10904 11.8432 
ITEM: TIMESTEP
140
ITEM: NUMBER OF ATOMS
33
ITEM: BOX BOUNDS pp pp pp
-3.8012334439370228e-03 7.1008012334439377e+00
-2.7268516526994615e-03 7.0997268516526999e+00
-1.4034438917410170e-02 2.4602034438917414e+01
ITEM: ATOMS id type x y z 
2 1 3.11446 1.65034 13.2927 
5 1 4.65763 1.57403 18.1516 
7 1 3.37963 1.6237 15.9646 
8 1 2.17584 1.57927 18.1477 
18 1 3.42071 1.57835 17.4219 
21 1 3.11519 2.93351 12.6057 
23 1 3.26309 1.65142 14.7594 
24 1 3.41778 0.444795 12.6087 
17 1 7.02902 2.87941 24.2973 
19 1 7.00255 1.61997 22.1366 
20 1 7.02903 0.384946 24.3027 
22 1 6.96815 1.57713 19.4739 
25 1 5.71407 1.57287 18.7659 
27 1 6.9799 1.60067 20.9158 
28 1 1.1109 1.57904 18.7454 
30 1 7.02964 1.63029 23.5777 
10 1 6.95957 5.23669 5.12137 
13 1 7.0282 3.93301 0.297999 
15 1 6.99815 5.19229 2.45943 
16 1 7.02821 6.42792 0.293458 
26 1 7.02697 5.18218 1.01796 
29 1 5.70393 5.23611 5.83655 
31 1 6.97381 5.21238 3.68023 
32 1 1.10977 5.23491 5.83713 
1 1 4.65781 5.2341 6.4645 
3 1 3.35144 5.2159 8.62673 
4 1 2.16528 5.23313 6.44872 
6 1 3.21012 5.20892 11.2611 
9 1 3.15329 3.97553 11.9767 
11 1 3.28178 5.20386 9.85171 
12 1 3.76707 6.48462 12.0132 
14 1 3.40497 5.23025 7.19119 
33 2 4.83973 6.10917 11.8431 
ITEM: TIMESTEP
150
ITEM: NUMBER OF ATOMS
33
ITEM: BOX BOUNDS pp pp pp
-4.1817269009682733e-03 7.1011817269009692e+00
-2.8980908758851078e-03 7.0998980908758860e+00
-1.5142729137030547e-02 2.4603142729137030e+01
ITEM: ATOMS id type x y z 
2 1 3.11442 1.65027 13.2929 
5 1 4.65782 1.57396 18.1521 
7 1 3.37958 1.62361 15.9648 
8 1 2.17564 1.57917 18.1482 
18 1 3.42068 1.57826 17.4224 
21 1 3.11515 2.93352 12.6057 
23 1 3.26304 1.65132 14.7597 
24 1 3.41782 0.444578 12.6087 
17 1 7.02939 2.87943 24.2984 
19 1 7.00292 1.61988 22.1374 
20 1 7.0294 0.384742 24.3038 
22 1 6.96853 1.57703 19.4745 
25 1 5.71423 1.57279 18.7665 
27 1 6.98027 1.60058 20.9167 
28 1 1.11071 1.57894 18.7459 
30 1 7.03001 1.6302 23.5787 
10 1 6.95993 5.23677 5.12073 
13 1 7.02857 3.93298 0.296891 
15 1 6.99852 5.19237 2.45863 
16 1 7.02858 6.42811 0.292351 
26 1 7.02734 5.18226 1.01695 
29 1 5.70408 5.23619 5.83603 
31 1 6.97418 5.21247 3.67939 
32 1 1.10963 5.23499 5.83662 
1 1 4.65799 5.23417 6.46394 
3 1 3.3514 5.21598 8.6265 
4 1 2.16503 5.23321 6.44813 
6 1 3.2101 5.20902 11.261 
9 1 3.15323 3.97549 11.9767 
11 1 3.28175 5.20396 9.8514 
12 1 3.76708 6.4848 12.0132 
14 1 3.40495 5.23033 7.19075 
33 2 4.83987 6.10928 11.8431 
ITEM: TIMESTEP
159
ITEM: NUMBER OF ATOMS
33
ITEM: BOX BOUNDS pp pp pp
-4.5490520962807720e-03 7.1015490520962796e+00
-3.0160937120322201e-03 7.1000160937120320e+00
-1.6293429909578935e-02 2.4604293429909578e+01
ITEM: ATOMS id type x y z 
2 1 3.11439 1.65022 13.293 
5 1 4.65799 1.57391 18.1527 
7 1 3.37954 1.62355 15.965 
8 1 2.17544 1.5791 18.1488 
18 1 3.42065 1.57819 17.4229 
21 1 3.11511 2.93352 12.6057 
23 1 3.263 1.65125 14.7599 
24 1 3.41786 0.444415 12.6087 
17 1 7.02975 2.87945 24.2995 
19 1 7.00328 1.61982 22.1382 
20 1 7.02976 0.384593 24.3049 
22 1 6.9689 1.57696 19.4752 
25 1 5.7144 1.57274 18.767 
27 1 6.98063 1.60051 20.9175 
28 1 1.11052 1.57887 18.7465 
30 1 7.03037 1.63014 23.5798 
10 1 6.96028 5.23683 5.12006 
13 1 7.02893 3.93295 0.295746 
15 1 6.99887 5.19242 2.45779 
16 1 7.02894 6.42824 0.291207 
26 1 7.0277 5.18231 1.0159 
29 1 5.70426 5.23625 5.83547 
31 1 6.97453 5.21253 3.67853 
32 1 1.10946 5.23504 5.83607 
1 1 4.65815 5.23423 6.46337 
3 1 3.35136 5.21603 8.62622 
4 1 2.16481 5.23327 6.44754 
6 1 3.21009 5.20909 11.2609 
9 1 3.15318 3.97547 11.9767 
11 1 3.28173 5.20403 9.85111 
12 1 3.76709 6.48493 12.0132 
14 1 3.40493 5.23039 7.19029 
33 2 4.84 6.10936 11.843 
ITEM: TIMESTEP
160
ITEM: NUMBER OF ATOMS
33
ITEM: BOX BOUNDS pp pp pp
-4.5490520962807720e-03 7.1015490520962796e+00
-3.0160937120322201e-03 7.1000160937120320e+00
-1.6293429909578935e-02 2.4604293429909578e+01
ITEM: ATOMS id type x y z 
2 1 3.11439 1.65022 13.293 
5 1 4.65799 1.57391 18.1527 
7 1 3.37954 1.62355 15.965 
8 1 2.17544 1.5791 18.1488 
18 1 3.42065 1.57819 17.4229 
21 1 3.11511 2.93352 12.6057 
23 1 3.263 1.65125 14.7599 
24 1 3.41786 0.444415 12.6087 
17 1 7.02975 2.87945 24.2995 
19 1 7.00328 1.61982 22.1382 
20 1 7.02976 0.384593 24.3049 
22 1 6.9689 1.57696 19.4752 
25 1 5.7144 1.57274 18.767 
27 1 6.98063 1.60051 20.9175 
28 1 1.11052 1.57887 18.7465 
30 1 7.03037 1.63014 23.5798 
10 1 6.96028 5.23683 5.12006 
13 1 7.02893 3.93295 0.295746 
15 1 6.99887 5.19242 2.45779 
16 1 7.02894 6.42824 0.291207 
26 1 7.0277 5.18231 1.0159 
29 1 5.70426 5.23625 5.83547 
31 1 6.97453 5.21253 3.67853 
32 1 1.10946 5.23504 5.83607 
1 1 4.65815 5.23423 6.46337 
3 1 3.35136 5.21603 8.62622 
4 1 2.16481 5.23327 6.44754 
6 1 3.21009 5.20909 11.2609 
9 1 3.15318 3.97547 11.9767 
11 1 3.28173 5.20403 9.85111 
12 1 3.76709 6.48493 12.0132 
14 1 3.40493 5.23039 7.19029 
33 2 4.84 6.10936 11.843 
ITEM: TIMESTEP
161
ITEM: NUMBER OF ATOMS
33
ITEM: BOX BOUNDS pp pp pp
-4.5490520962807720e-03 7.1015490520962796e+00
-3.0160937120322201e-03 7.1000160937120320e+00
-1.6293429909578935e-02 2.4604293429909578e+01
ITEM: ATOMS id type x y z 
2 1 3.11439 1.65022 13.293 
5 1 4.65799 1.57391 18.1527 
7 1 3.37954 1.62355 15.965 
8 1 2.17544 1.5791 18.1488 
18 1 3.42065 1.57819 17.4229 
21 1 3.11511 2.93352 12.6057 
23 1 3.263 1.65125 14.7599 
24 1 3.41786 0.444415 12.6087 
17 1 7.02975 2.87945 24.2995 
19 1 7.00328 1.61982 22.1382 
20 1 7.02976 0.384593 24.3049 
22 1 6.9689 1.57696 19.4752 
25 1 5.7144 1.57274 18.767 
27 1 6.98063 1.60051 20.9175 
28 1 1.11052 1.57887 18.7465 
30 1 7.03037 1.63014 23.5798 
10 1 6.96028 5.23683 5.12006 
13 1 7.02893 3.93295 0.295746 
15 1 6.99887 5.19242 2.45779 
16 1 7.02894 6.42824 0.291207 
26 1 7.0277 5.18231 1.0159 
29 1 5.70426 5.23625 5.83547 
31 1 6.97453 5.21253 3.67853 
32 1 1.10946 5.23504 5.83607 
1 1 4.65815 5.23423 6.46337 
3 1 3.35136 5.21603 8.62622 
4 1 2.16481 5.23327 6.44754 
6 1 3.21009 5.20909 11.2609 
9 1 3.15318 3.97547 11.9767 
11 1 3.28173 5.20403 9.85111 
12 1 3.76709 6.48493 12.0132 
14 1 3.40493 5.23039 7.19029 
33 2 4.84 6.10936 11.843 
ITEM: TIMESTEP
162
ITEM: NUMBER OF ATOMS
33
ITEM: BOX BOUNDS pp pp pp
-4.5490520962807720e-03 7.1015490520962796e+00
-3.0160937120322201e-03 7.1000160937120320e+00
-1.6293429909578935e-02 2.4604293429909578e+01
ITEM: ATOMS id type x y z 
2 1 3.11439 1.65022 13.293 
5 1 4.65799 1.57391 18.1527 
7 1 3.37954 1.62355 15.965 
8 1 2.17544 1.5791 18.1488 
18 1 3.42065 1.57819 17.4229 
21 1 3.11511 2.93352 12.6057 
23 1 3.263 1.65125 14.7599 
24 1 3.41786 0.444415 12.6087 
17 1 7.02975 2.87945 24.2995 
19 1 7.00328 1.61982 22.1382 
20 1 7.02976 0.384593 24.3049 
22 1 6.9689 1.57696 19.4752 
25 1 5.7144 1.57274 18.767 
27 1 6.98063 1.60051 20.9175 
28 1 1.11052 1.57887 18.7465 
30 1 7.03037 1.63014 23.5798 
10 1 6.96028 5.23683 5.12006 
13 1 7.02893 3.93295 0.295746 
15 1 6.99887 5.19242 2.45779 
16 1 7.02894 6.42824 0.291207 
26 1 7.0277 5.18231 1.0159 
29 1 5.70426 5.23625 5.83547 
31 1 6.97453 5.21253 3.67853 
32 1 1.10946 5.23504 5.83607 
1 1 4.65815 5.23423 6.46337 
3 1 3.35136 5.21603 8.62622 
4 1 2.16481 5.23327 6.44754 
6 1 3.21009 5.20909 11.2609 
9 1 3.15318 3.97547 11.9767 
11 1 3.28173 5.20403 9.85111 
12 1 3.76709 6.48493 12.0132 
14 1 3.40493 5.23039 7.19029 
33 2 4.84 6.10936 11.843 
