ITEM: TIMESTEP
0
ITEM: NUMBER OF ATOMS
57
ITEM: BOX BOUNDS pp pp pp
0.0000000000000000e+00 3.2808000000000000e+01
0.0000000000000000e+00 1.7780000000000001e+01
0.0000000000000000e+00 2.4729999999999999e+00
ITEM: ATOMS id type x y z 
13 1 7.043 0.849 2.464 
29 1 7.397 1.432 1.228 
37 1 8.035 2.733 1.228 
1 1 6.173 17.398 2.464 
5 1 5.371 17.398 1.228 
9 1 3.973 17.398 1.228 
16 1 7.043 16.167 2.464 
32 1 7.397 15.584 1.228 
40 1 8.035 14.283 1.228 
45 1 3.236 17.398 2.464 
49 1 1.81 17.398 2.464 
53 1 1.083 17.398 1.228 
57 2 3.295 16.049 0.021 
4 1 10.968 8.508 2.464 
8 1 11.771 8.508 1.228 
12 1 13.168 8.508 1.228 
18 1 10.098 7.277 2.464 
21 1 8.308 3.392 2.464 
26 1 8.833 4.734 2.464 
34 1 9.745 6.694 1.228 
42 1 9.106 5.393 1.228 
48 1 13.906 8.508 2.464 
52 1 15.331 8.508 2.464 
56 1 16.058 8.508 1.228 
19 1 10.098 9.739 2.464 
24 1 8.308 13.624 2.464 
27 1 8.833 12.282 2.464 
35 1 9.745 10.322 1.228 
43 1 9.106 11.623 1.228 
3 1 22.577 8.508 2.464 
7 1 21.775 8.508 1.228 
11 1 20.377 8.508 1.228 
20 1 23.447 7.277 2.464 
36 1 23.801 6.694 1.228 
44 1 24.439 5.393 1.228 
47 1 19.64 8.508 2.464 
51 1 18.214 8.508 2.464 
55 1 17.487 8.508 1.228 
17 1 23.447 9.739 2.464 
33 1 23.801 10.322 1.228 
41 1 24.439 11.623 1.228 
15 1 26.502 0.849 2.464 
23 1 25.237 3.392 2.464 
28 1 24.712 4.734 2.464 
31 1 26.149 1.432 1.228 
39 1 25.511 2.733 1.228 
2 1 27.373 17.398 2.464 
6 1 28.175 17.398 1.228 
10 1 29.572 17.398 1.228 
14 1 26.502 16.167 2.464 
22 1 25.237 13.624 2.464 
25 1 24.712 12.282 2.464 
30 1 26.149 15.584 1.228 
38 1 25.511 14.283 1.228 
46 1 30.31 17.398 2.464 
50 1 31.735 17.398 2.464 
54 1 32.462 17.398 1.228 
ITEM: TIMESTEP
10
ITEM: NUMBER OF ATOMS
57
ITEM: BOX BOUNDS pp pp pp
0.0000000000000000e+00 3.2808000000000000e+01
0.0000000000000000e+00 1.7780000000000001e+01
0.0000000000000000e+00 2.4729999999999999e+00
ITEM: ATOMS id type x y z 
13 1 7.04912 0.850985 2.46426 
29 1 7.40014 1.4351 1.22778 
37 1 8.03607 2.73509 1.22777 
1 1 6.18936 17.3963 2.4646 
5 1 5.37426 17.4078 1.22853 
9 1 4.00564 17.5774 1.2319 
16 1 7.0481 16.1656 2.46426 
32 1 7.4001 15.5804 1.22778 
40 1 8.03604 14.281 1.22777 
45 1 3.24444 17.2916 2.46794 
49 1 1.77623 17.479 2.46333 
53 1 1.07985 17.4094 1.2268 
57 2 3.30149 15.8748 0.0139198 
4 1 10.9711 8.50792 2.46425 
8 1 11.7721 8.508 1.22774 
12 1 13.1693 8.508 1.22777 
18 1 10.0985 7.27813 2.46422 
21 1 8.30895 3.39494 2.46423 
26 1 8.83391 4.73556 2.46423 
34 1 9.74499 6.69558 1.22777 
42 1 9.10724 5.39495 1.22777 
48 1 13.9069 8.508 2.46424 
52 1 15.3315 8.508 2.46423 
56 1 16.0576 8.508 1.22777 
19 1 10.0985 9.73785 2.46422 
24 1 8.30905 13.6208 2.46423 
27 1 8.83392 12.2804 2.46423 
35 1 9.74501 10.3204 1.22777 
43 1 9.10732 11.6208 1.22777 
3 1 22.5756 8.508 2.46425 
7 1 21.7737 8.508 1.22774 
11 1 20.3766 8.508 1.22777 
20 1 23.4471 7.27748 2.46422 
36 1 23.8008 6.69449 1.22777 
44 1 24.4376 5.39492 1.22777 
47 1 19.6399 8.508 2.46424 
51 1 18.2133 8.508 2.46423 
55 1 17.4874 8.508 1.22777 
17 1 23.4471 9.73852 2.46422 
33 1 23.8008 10.3215 1.22777 
41 1 24.4376 11.6211 1.22777 
15 1 26.501 0.849291 2.46422 
23 1 25.2382 3.39083 2.46423 
28 1 24.7117 4.73359 2.46423 
31 1 26.1499 1.42952 1.22778 
39 1 25.5114 2.7331 1.22777 
2 1 27.3689 17.398 2.46425 
6 1 28.1707 17.398 1.22774 
10 1 29.5656 17.398 1.22777 
14 1 26.501 16.1667 2.46422 
22 1 25.2382 13.6252 2.46423 
25 1 24.7117 12.2824 2.46423 
30 1 26.1499 15.5865 1.22778 
38 1 25.5114 14.2829 1.22777 
46 1 30.2967 17.3979 2.46424 
50 1 31.7175 17.3979 2.46421 
54 1 32.4479 17.3996 1.22768 
ITEM: TIMESTEP
20
ITEM: NUMBER OF ATOMS
57
ITEM: BOX BOUNDS pp pp pp
0.0000000000000000e+00 3.2808000000000000e+01
0.0000000000000000e+00 1.7780000000000001e+01
0.0000000000000000e+00 2.4729999999999999e+00
ITEM: ATOMS id type x y z 
13 1 7.04941 0.851044 2.46426 
29 1 7.40057 1.43564 1.22778 
37 1 8.03624 2.73538 1.22777 
1 1 6.1885 17.3963 2.46461 
5 1 5.37217 17.4085 1.22855 
9 1 4.00572 17.5777 1.23193 
16 1 7.04834 16.1656 2.46426 
32 1 7.40055 15.5798 1.22778 
40 1 8.03622 14.2807 1.22777 
45 1 3.24505 17.2912 2.46798 
49 1 1.77573 17.479 2.46335 
53 1 1.07829 17.4101 1.22681 
57 2 3.30151 15.8734 0.0137951 
4 1 10.9707 8.50793 2.46425 
8 1 11.7722 8.508 1.22774 
12 1 13.1694 8.508 1.22777 
18 1 10.0984 7.27811 2.46423 
21 1 8.30912 3.39533 2.46423 
26 1 8.83398 4.73571 2.46423 
34 1 9.74495 6.69555 1.22777 
42 1 9.10728 5.39502 1.22777 
48 1 13.9067 8.508 2.46424 
52 1 15.3317 8.508 2.46423 
56 1 16.0579 8.508 1.22777 
19 1 10.0984 9.73786 2.46423 
24 1 8.30921 13.6204 2.46423 
27 1 8.83398 12.2803 2.46423 
35 1 9.74497 10.3204 1.22777 
43 1 9.10734 11.6208 1.22777 
3 1 22.5758 8.508 2.46425 
7 1 21.7737 8.508 1.22774 
11 1 20.3765 8.508 1.22777 
20 1 23.4471 7.27742 2.46423 
36 1 23.801 6.6942 1.22777 
44 1 24.4379 5.39396 1.22777 
47 1 19.6398 8.508 2.46424 
51 1 18.2135 8.508 2.46423 
55 1 17.4876 8.508 1.22777 
17 1 23.4471 9.73858 2.46423 
33 1 23.801 10.3218 1.22777 
41 1 24.4379 11.622 1.22777 
15 1 26.5004 0.849609 2.46423 
23 1 25.2379 3.39156 2.46423 
28 1 24.7117 4.7336 2.46423 
31 1 26.1487 1.43153 1.22778 
39 1 25.5111 2.73372 1.22777 
2 1 27.3679 17.398 2.46425 
6 1 28.1705 17.398 1.22774 
10 1 29.5647 17.398 1.22777 
14 1 26.5004 16.1664 2.46423 
22 1 25.2379 13.6244 2.46423 
25 1 24.7117 12.2824 2.46423 
30 1 26.1487 15.5845 1.22778 
38 1 25.5111 14.2823 1.22777 
46 1 30.2982 17.3979 2.46424 
50 1 31.7236 17.3978 2.46421 
54 1 32.4478 17.3996 1.22768 
ITEM: TIMESTEP
21
ITEM: NUMBER OF ATOMS
57
ITEM: BOX BOUNDS pp pp pp
0.0000000000000000e+00 3.2808000000000000e+01
0.0000000000000000e+00 1.7780000000000001e+01
0.0000000000000000e+00 2.4729999999999999e+00
ITEM: ATOMS id type x y z 
13 1 7.04941 0.851044 2.46426 
29 1 7.40057 1.43564 1.22778 
37 1 8.03624 2.73538 1.22777 
1 1 6.1885 17.3963 2.46461 
5 1 5.37217 17.4085 1.22855 
9 1 4.00572 17.5777 1.23193 
16 1 7.04834 16.1656 2.46426 
32 1 7.40055 15.5798 1.22778 
40 1 8.03622 14.2807 1.22777 
45 1 3.24505 17.2912 2.46798 
49 1 1.77573 17.479 2.46335 
53 1 1.07829 17.4101 1.22681 
57 2 3.30151 15.8734 0.0137951 
4 1 10.9707 8.50793 2.46425 
8 1 11.7722 8.508 1.22774 
12 1 13.1694 8.508 1.22777 
18 1 10.0984 7.27811 2.46423 
21 1 8.30912 3.39533 2.46423 
26 1 8.83398 4.73571 2.46423 
34 1 9.74495 6.69555 1.22777 
42 1 9.10728 5.39502 1.22777 
48 1 13.9067 8.508 2.46424 
52 1 15.3317 8.508 2.46423 
56 1 16.0579 8.508 1.22777 
19 1 10.0984 9.73786 2.46423 
24 1 8.30921 13.6204 2.46423 
27 1 8.83398 12.2803 2.46423 
35 1 9.74497 10.3204 1.22777 
43 1 9.10734 11.6208 1.22777 
3 1 22.5758 8.508 2.46425 
7 1 21.7737 8.508 1.22774 
11 1 20.3765 8.508 1.22777 
20 1 23.4471 7.27742 2.46423 
36 1 23.801 6.6942 1.22777 
44 1 24.4379 5.39396 1.22777 
47 1 19.6398 8.508 2.46424 
51 1 18.2135 8.508 2.46423 
55 1 17.4876 8.508 1.22777 
17 1 23.4471 9.73858 2.46423 
33 1 23.801 10.3218 1.22777 
41 1 24.4379 11.622 1.22777 
15 1 26.5004 0.849609 2.46423 
23 1 25.2379 3.39156 2.46423 
28 1 24.7117 4.7336 2.46423 
31 1 26.1487 1.43153 1.22778 
39 1 25.5111 2.73372 1.22777 
2 1 27.3679 17.398 2.46425 
6 1 28.1705 17.398 1.22774 
10 1 29.5647 17.398 1.22777 
14 1 26.5004 16.1664 2.46423 
22 1 25.2379 13.6244 2.46423 
25 1 24.7117 12.2824 2.46423 
30 1 26.1487 15.5845 1.22778 
38 1 25.5111 14.2823 1.22777 
46 1 30.2982 17.3979 2.46424 
50 1 31.7236 17.3978 2.46421 
54 1 32.4478 17.3996 1.22768 
ITEM: TIMESTEP
22
ITEM: NUMBER OF ATOMS
57
ITEM: BOX BOUNDS pp pp pp
0.0000000000000000e+00 3.2808000000000000e+01
0.0000000000000000e+00 1.7780000000000001e+01
0.0000000000000000e+00 2.4729999999999999e+00
ITEM: ATOMS id type x y z 
13 1 7.04941 0.851044 2.46426 
29 1 7.40057 1.43564 1.22778 
37 1 8.03624 2.73538 1.22777 
1 1 6.1885 17.3963 2.46461 
5 1 5.37217 17.4085 1.22855 
9 1 4.00572 17.5777 1.23193 
16 1 7.04834 16.1656 2.46426 
32 1 7.40055 15.5798 1.22778 
40 1 8.03622 14.2807 1.22777 
45 1 3.24505 17.2912 2.46798 
49 1 1.77573 17.479 2.46335 
53 1 1.07829 17.4101 1.22681 
57 2 3.30151 15.8734 0.0137951 
4 1 10.9707 8.50793 2.46425 
8 1 11.7722 8.508 1.22774 
12 1 13.1694 8.508 1.22777 
18 1 10.0984 7.27811 2.46423 
21 1 8.30912 3.39533 2.46423 
26 1 8.83398 4.73571 2.46423 
34 1 9.74495 6.69555 1.22777 
42 1 9.10728 5.39502 1.22777 
48 1 13.9067 8.508 2.46424 
52 1 15.3317 8.508 2.46423 
56 1 16.0579 8.508 1.22777 
19 1 10.0984 9.73786 2.46423 
24 1 8.30921 13.6204 2.46423 
27 1 8.83398 12.2803 2.46423 
35 1 9.74497 10.3204 1.22777 
43 1 9.10734 11.6208 1.22777 
3 1 22.5758 8.508 2.46425 
7 1 21.7737 8.508 1.22774 
11 1 20.3765 8.508 1.22777 
20 1 23.4471 7.27742 2.46423 
36 1 23.801 6.6942 1.22777 
44 1 24.4379 5.39396 1.22777 
47 1 19.6398 8.508 2.46424 
51 1 18.2135 8.508 2.46423 
55 1 17.4876 8.508 1.22777 
17 1 23.4471 9.73858 2.46423 
33 1 23.801 10.3218 1.22777 
41 1 24.4379 11.622 1.22777 
15 1 26.5004 0.849609 2.46423 
23 1 25.2379 3.39156 2.46423 
28 1 24.7117 4.7336 2.46423 
31 1 26.1487 1.43153 1.22778 
39 1 25.5111 2.73372 1.22777 
2 1 27.3679 17.398 2.46425 
6 1 28.1705 17.398 1.22774 
10 1 29.5647 17.398 1.22777 
14 1 26.5004 16.1664 2.46423 
22 1 25.2379 13.6244 2.46423 
25 1 24.7117 12.2824 2.46423 
30 1 26.1487 15.5845 1.22778 
38 1 25.5111 14.2823 1.22777 
46 1 30.2982 17.3979 2.46424 
50 1 31.7236 17.3978 2.46421 
54 1 32.4478 17.3996 1.22768 
ITEM: TIMESTEP
30
ITEM: NUMBER OF ATOMS
57
ITEM: BOX BOUNDS pp pp pp
-7.7970007349679772e-03 3.2815797000734982e+01
-2.4618647570751814e-03 1.7782461864757078e+01
-2.7987498055920300e-04 2.4732798749805589e+00
ITEM: ATOMS id type x y z 
13 1 7.04498 0.848825 2.46454 
29 1 7.39631 1.43359 1.22778 
37 1 8.03229 2.73373 1.22777 
1 1 6.18353 17.3986 2.46489 
5 1 5.36663 17.411 1.22855 
9 1 3.99994 17.5801 1.23193 
16 1 7.0439 16.1676 2.46454 
32 1 7.39628 15.5816 1.22778 
40 1 8.03226 14.2821 1.22777 
45 1 3.23875 17.2935 2.46826 
49 1 1.7687 17.4813 2.46363 
53 1 1.07114 17.4126 1.2268 
57 2 3.29528 15.8751 0.0134967 
4 1 10.9682 8.50782 2.46453 
8 1 11.77 8.50789 1.22774 
12 1 13.1679 8.50789 1.22777 
18 1 10.0955 7.27767 2.46451 
21 1 8.30528 3.39385 2.46451 
26 1 8.8304 4.7346 2.46451 
34 1 9.74179 6.69494 1.22777 
42 1 9.10381 5.39404 1.22777 
48 1 13.9055 8.50789 2.46452 
52 1 15.3312 8.50789 2.46451 
56 1 16.0577 8.50789 1.22777 
19 1 10.0955 9.73809 2.46451 
24 1 8.30538 13.6217 2.46451 
27 1 8.83041 12.2812 2.46451 
35 1 9.74181 10.3208 1.22777 
43 1 9.10388 11.6215 1.22777 
3 1 22.5787 8.50789 2.46453 
7 1 21.7763 8.50789 1.22774 
11 1 20.3784 8.50789 1.22776 
20 1 23.4504 7.27696 2.46451 
36 1 23.8045 6.69357 1.22777 
44 1 24.4418 5.39287 1.22777 
47 1 19.6413 8.50789 2.46452 
51 1 18.2144 8.50789 2.46451 
55 1 17.4882 8.50789 1.22776 
17 1 23.4504 9.73882 2.46451 
33 1 23.8045 10.3222 1.22777 
41 1 24.4418 11.6229 1.22777 
15 1 26.5052 0.847413 2.4645 
23 1 25.2421 3.39014 2.46451 
28 1 24.7156 4.73249 2.46451 
31 1 26.1533 1.42964 1.22777 
39 1 25.5154 2.7321 1.22777 
2 1 27.373 17.4004 2.46453 
6 1 28.1761 17.4004 1.22774 
10 1 29.5709 17.4003 1.22777 
14 1 26.5052 16.1684 2.4645 
22 1 25.2421 13.6256 2.46451 
25 1 24.7156 12.2833 2.46451 
30 1 26.1533 15.5861 1.22777 
38 1 25.5154 14.2837 1.22777 
46 1 30.305 17.4003 2.46452 
50 1 31.7314 17.4002 2.46449 
54 1 32.4554 17.402 1.22767 
ITEM: TIMESTEP
40
ITEM: NUMBER OF ATOMS
57
ITEM: BOX BOUNDS pp pp pp
-1.1349334671990334e-02 3.2819349334672005e+01
-3.7719555838705851e-03 1.7783771955583877e+01
5.0471277804226351e-05 2.4729495287221952e+00
ITEM: ATOMS id type x y z 
13 1 7.04298 0.847652 2.46422 
29 1 7.39438 1.43251 1.22778 
37 1 8.03052 2.73294 1.22777 
1 1 6.18112 17.3998 2.46457 
5 1 5.36357 17.4127 1.22856 
9 1 3.99752 17.5814 1.23195 
16 1 7.04189 16.1686 2.46422 
32 1 7.39435 15.5826 1.22778 
40 1 8.03049 14.2828 1.22777 
45 1 3.23577 17.2946 2.46795 
49 1 1.76538 17.4824 2.46331 
53 1 1.06815 17.4143 1.22681 
57 2 3.29241 15.8757 0.0137691 
4 1 10.9671 8.50777 2.4642 
8 1 11.769 8.50783 1.22775 
12 1 13.1671 8.50784 1.22777 
18 1 10.0941 7.27744 2.46418 
21 1 8.30355 3.39312 2.46418 
26 1 8.8288 4.73406 2.46418 
34 1 9.74036 6.69461 1.22777 
42 1 9.10225 5.39352 1.22777 
48 1 13.9049 8.50784 2.46419 
52 1 15.331 8.50784 2.46418 
56 1 16.0577 8.50784 1.22777 
19 1 10.0941 9.73821 2.46418 
24 1 8.30365 13.6223 2.46418 
27 1 8.82881 12.2816 2.46418 
35 1 9.74039 10.321 1.22777 
43 1 9.10232 11.622 1.22777 
3 1 22.58 8.50784 2.4642 
7 1 21.7775 8.50784 1.22775 
11 1 20.3793 8.50784 1.22777 
20 1 23.4519 7.27671 2.46418 
36 1 23.8061 6.69321 1.22777 
44 1 24.4436 5.39211 1.22777 
47 1 19.642 8.50784 2.46419 
51 1 18.2149 8.50784 2.46418 
55 1 17.4884 8.50784 1.22777 
17 1 23.4519 9.73896 2.46418 
33 1 23.8061 10.3225 1.22777 
41 1 24.4436 11.6236 1.22777 
15 1 26.5073 0.846293 2.46418 
23 1 25.2439 3.38957 2.46418 
28 1 24.7173 4.73197 2.46418 
31 1 26.1552 1.42891 1.22777 
39 1 25.5174 2.73136 1.22777 
2 1 27.3751 17.4016 2.4642 
6 1 28.1785 17.4016 1.22774 
10 1 29.5736 17.4016 1.22777 
14 1 26.5073 16.1694 2.46418 
22 1 25.2439 13.6261 2.46418 
25 1 24.7173 12.2837 2.46418 
30 1 26.1552 15.5868 1.22777 
38 1 25.5174 14.2843 1.22777 
46 1 30.3083 17.4015 2.46419 
50 1 31.7357 17.4014 2.46416 
54 1 32.4589 17.4032 1.22767 
ITEM: TIMESTEP
50
ITEM: NUMBER OF ATOMS
57
ITEM: BOX BOUNDS pp pp pp
-1.2283167811047354e-02 3.2820283167811056e+01
-5.6009039500993420e-03 1.7785600903950101e+01
2.5687940865751891e-04 2.4727431205913417e+00
ITEM: ATOMS id type x y z 
13 1 7.04254 0.846034 2.46402 
29 1 7.3939 1.43097 1.22778 
37 1 8.03014 2.73196 1.22777 
1 1 6.18022 17.4015 2.46438 
5 1 5.3613 17.4154 1.22859 
9 1 3.99745 17.5834 1.23198 
16 1 7.0414 16.1701 2.46402 
32 1 7.39383 15.584 1.22778 
40 1 8.0301 14.2836 1.22777 
45 1 3.2347 17.2957 2.46779 
49 1 1.7643 17.4838 2.46314 
53 1 1.06821 17.4171 1.22682 
57 2 3.29156 15.876 0.0138118 
4 1 10.9669 8.50769 2.464 
8 1 11.7687 8.50775 1.22775 
12 1 13.1669 8.50776 1.22777 
18 1 10.0939 7.27715 2.46398 
21 1 8.30315 3.39217 2.46398 
26 1 8.82847 4.7334 2.46398 
34 1 9.74006 6.6942 1.22777 
42 1 9.10191 5.39283 1.22777 
48 1 13.9049 8.50776 2.46399 
52 1 15.3309 8.50776 2.46398 
56 1 16.058 8.50776 1.22777 
19 1 10.0939 9.73833 2.46398 
24 1 8.30325 13.6231 2.46398 
27 1 8.82848 12.2821 2.46398 
35 1 9.74009 10.3212 1.22777 
43 1 9.10197 11.6225 1.22777 
3 1 22.5802 8.50776 2.464 
7 1 21.778 8.50776 1.22775 
11 1 20.3796 8.50776 1.22777 
20 1 23.4522 7.27635 2.46398 
36 1 23.8064 6.69273 1.22777 
44 1 24.4442 5.39086 1.22777 
47 1 19.642 8.50776 2.46399 
51 1 18.2153 8.50776 2.46398 
55 1 17.4884 8.50776 1.22776 
17 1 23.4522 9.73917 2.46398 
33 1 23.8064 10.3228 1.22777 
41 1 24.4442 11.6247 1.22777 
15 1 26.5076 0.844791 2.46398 
23 1 25.2442 3.38905 2.46398 
28 1 24.7177 4.73137 2.46398 
31 1 26.1553 1.42823 1.22777 
39 1 25.5178 2.7305 1.22777 
2 1 27.3752 17.4034 2.464 
6 1 28.179 17.4034 1.22774 
10 1 29.5743 17.4033 1.22777 
14 1 26.5076 16.1707 2.46398 
22 1 25.2442 13.6265 2.46398 
25 1 24.7177 12.2842 2.46398 
30 1 26.1553 15.5873 1.22777 
38 1 25.5178 14.285 1.22777 
46 1 30.3099 17.4032 2.46399 
50 1 31.7385 17.4032 2.46395 
54 1 32.4597 17.405 1.22767 
ITEM: TIMESTEP
60
ITEM: NUMBER OF ATOMS
57
ITEM: BOX BOUNDS pp pp pp
-1.1190164685083321e-02 3.2819190164685097e+01
-3.8949948230225296e-03 1.7783894994823022e+01
-4.4257945555233538e-05 2.4730442579455540e+00
ITEM: ATOMS id type x y z 
13 1 7.04333 0.847653 2.46433 
29 1 7.39449 1.43234 1.22778 
37 1 8.0308 2.73353 1.22776 
1 1 6.18089 17.3998 2.46471 
5 1 5.35994 17.4154 1.22864 
9 1 3.99902 17.5824 1.23204 
16 1 7.04209 16.1685 2.46433 
32 1 7.39436 15.5828 1.22778 
40 1 8.03074 14.2822 1.22776 
45 1 3.23542 17.2925 2.46817 
49 1 1.76523 17.4818 2.46349 
53 1 1.07038 17.4171 1.22683 
57 2 3.29228 15.8727 0.0132377 
4 1 10.9674 8.50777 2.46429 
8 1 11.7689 8.50782 1.22775 
12 1 13.1672 8.50783 1.22776 
18 1 10.0946 7.27752 2.46428 
21 1 8.30372 3.39338 2.46428 
26 1 8.82911 4.73445 2.46428 
34 1 9.74066 6.69475 1.22776 
42 1 9.10255 5.39358 1.22776 
48 1 13.9052 8.50783 2.46429 
52 1 15.3309 8.50783 2.46428 
56 1 16.0583 8.50783 1.22776 
19 1 10.0946 9.73809 2.46428 
24 1 8.30381 13.6221 2.46428 
27 1 8.82912 12.2812 2.46428 
35 1 9.74069 10.3208 1.22776 
43 1 9.1026 11.6219 1.22776 
3 1 22.5798 8.50783 2.46429 
7 1 21.778 8.50783 1.22775 
11 1 20.3795 8.50783 1.22776 
20 1 23.4514 7.2766 2.46428 
36 1 23.8056 6.69326 1.22776 
44 1 24.4436 5.3911 1.22776 
47 1 19.6415 8.50783 2.46429 
51 1 18.2156 8.50783 2.46428 
55 1 17.4882 8.50783 1.22776 
17 1 23.4514 9.73907 2.46428 
33 1 23.8056 10.3224 1.22776 
41 1 24.4436 11.6246 1.22776 
15 1 26.5067 0.84652 2.46428 
23 1 25.2434 3.39086 2.46428 
28 1 24.7169 4.73256 2.46428 
31 1 26.1541 1.43059 1.22776 
39 1 25.517 2.73218 1.22776 
2 1 27.3739 17.4017 2.46429 
6 1 28.1779 17.4017 1.22774 
10 1 29.5739 17.4017 1.22776 
14 1 26.5067 16.1691 2.46428 
22 1 25.2434 13.6248 2.46428 
25 1 24.7169 12.2831 2.46428 
30 1 26.1541 15.5851 1.22776 
38 1 25.517 14.2835 1.22776 
46 1 30.3096 17.4016 2.46429 
50 1 31.7388 17.4015 2.46425 
54 1 32.4584 17.4035 1.22765 
ITEM: TIMESTEP
70
ITEM: NUMBER OF ATOMS
57
ITEM: BOX BOUNDS pp pp pp
-7.0182813578314688e-03 3.2815018281357851e+01
-3.2200458156227121e-03 1.7783220045815625e+01
-1.4683508782363590e-04 2.4731468350878227e+00
ITEM: ATOMS id type x y z 
13 1 7.04605 0.848444 2.46445 
29 1 7.39676 1.43288 1.22778 
37 1 8.03298 2.73468 1.22775 
1 1 6.18407 17.399 2.46489 
5 1 5.36012 17.4186 1.22874 
9 1 4.00307 17.584 1.23218 
16 1 7.0445 16.1676 2.46445 
32 1 7.39645 15.5824 1.22778 
40 1 8.03286 14.2812 1.22775 
45 1 3.23986 17.2866 2.46848 
49 1 1.76975 17.481 2.4637 
53 1 1.07493 17.4203 1.22689 
57 2 3.29531 15.8674 0.0124397 
4 1 10.9691 8.5078 2.46439 
8 1 11.7703 8.50785 1.22775 
12 1 13.1685 8.50786 1.22775 
18 1 10.0967 7.27773 2.46439 
21 1 8.30568 3.39376 2.46439 
26 1 8.83131 4.73519 2.46439 
34 1 9.74268 6.69512 1.22775 
42 1 9.10471 5.39397 1.22775 
48 1 13.9063 8.50786 2.4644 
52 1 15.3314 8.50786 2.46439 
56 1 16.0589 8.50786 1.22775 
19 1 10.0967 9.73793 2.46439 
24 1 8.30573 13.6218 2.46439 
27 1 8.8313 12.2805 2.46439 
35 1 9.74269 10.3206 1.22775 
43 1 9.10475 11.6216 1.22775 
3 1 22.5783 8.50786 2.46439 
7 1 21.777 8.50786 1.22775 
11 1 20.3786 8.50786 1.22775 
20 1 23.4491 7.27658 2.46439 
36 1 23.8031 6.69384 1.22775 
44 1 24.441 5.3918 1.22775 
47 1 19.6404 8.50786 2.4644 
51 1 18.2155 8.50786 2.46439 
55 1 17.4878 8.50786 1.22775 
17 1 23.4491 9.73915 2.46439 
33 1 23.8031 10.3219 1.22775 
41 1 24.441 11.6239 1.22775 
15 1 26.504 0.847362 2.46439 
23 1 25.241 3.39185 2.46439 
28 1 24.7143 4.73358 2.46439 
31 1 26.1516 1.43151 1.22775 
39 1 25.5147 2.7333 1.22775 
2 1 27.3712 17.4011 2.46439 
6 1 28.1739 17.4011 1.22774 
10 1 29.5707 17.4011 1.22775 
14 1 26.504 16.1684 2.46439 
22 1 25.241 13.6239 2.46439 
25 1 24.7143 12.2821 2.46439 
30 1 26.1516 15.5842 1.22775 
38 1 25.5147 14.2824 1.22775 
46 1 30.3061 17.4009 2.46439 
50 1 31.7347 17.4008 2.46433 
54 1 32.4539 17.4031 1.22763 
ITEM: TIMESTEP
80
ITEM: NUMBER OF ATOMS
57
ITEM: BOX BOUNDS pp pp pp
-1.2874395358463854e-02 3.2820874395358494e+01
-3.5938995428148454e-03 1.7783593899542819e+01
1.5957628306782060e-05 2.4729840423716922e+00
ITEM: ATOMS id type x y z 
13 1 7.04298 0.848025 2.46431 
29 1 7.39356 1.43265 1.22779 
37 1 8.02988 2.73495 1.22775 
1 1 6.17993 17.3991 2.46484 
5 1 5.35286 17.4243 1.22889 
9 1 3.99865 17.5853 1.23234 
16 1 7.04082 16.1677 2.46431 
32 1 7.39292 15.5828 1.22779 
40 1 8.02962 14.2811 1.22775 
45 1 3.23589 17.281 2.46856 
49 1 1.7651 17.4802 2.46368 
53 1 1.07137 17.4262 1.22699 
57 2 3.29021 15.8625 0.0116736 
4 1 10.9674 8.50785 2.46423 
8 1 11.769 8.50783 1.22775 
12 1 13.1677 8.50785 1.22775 
18 1 10.095 7.27768 2.46423 
21 1 8.3028 3.39389 2.46423 
26 1 8.82886 4.73525 2.46423 
34 1 9.74062 6.69511 1.22775 
42 1 9.10239 5.39369 1.22775 
48 1 13.9057 8.50785 2.46424 
52 1 15.3313 8.50785 2.46423 
56 1 16.059 8.50785 1.22775 
19 1 10.095 9.73799 2.46423 
24 1 8.3028 13.6218 2.46423 
27 1 8.82881 12.2806 2.46423 
35 1 9.7406 10.3206 1.22775 
43 1 9.10238 11.622 1.22775 
3 1 22.5802 8.50785 2.46423 
7 1 21.7787 8.50785 1.22775 
11 1 20.3797 8.50785 1.22775 
20 1 23.4511 7.27638 2.46423 
36 1 23.8054 6.69341 1.22775 
44 1 24.4434 5.39167 1.22775 
47 1 19.6418 8.50785 2.46424 
51 1 18.2163 8.50785 2.46423 
55 1 17.4887 8.50785 1.22775 
17 1 23.4511 9.73931 2.46423 
33 1 23.8054 10.3223 1.22775 
41 1 24.4434 11.624 1.22775 
15 1 26.5073 0.847589 2.46424 
23 1 25.2443 3.3919 2.46423 
28 1 24.7171 4.73338 2.46423 
31 1 26.155 1.43175 1.22775 
39 1 25.5179 2.73393 1.22775 
2 1 27.3737 17.4014 2.46423 
6 1 28.1771 17.4014 1.22775 
10 1 29.5757 17.4014 1.22775 
14 1 26.5073 16.1681 2.46424 
22 1 25.2443 13.6238 2.46423 
25 1 24.7171 12.2823 2.46423 
30 1 26.155 15.5839 1.22775 
38 1 25.5179 14.2818 1.22775 
46 1 30.3112 17.4012 2.46423 
50 1 31.7419 17.401 2.46415 
54 1 32.4606 17.4039 1.22761 
ITEM: TIMESTEP
90
ITEM: NUMBER OF ATOMS
57
ITEM: BOX BOUNDS pp pp pp
-6.1778571000066880e-03 3.2814177857100042e+01
-4.3006035917406487e-03 1.7784300603591742e+01
-8.5852102977827197e-05 2.4730858521029773e+00
ITEM: ATOMS id type x y z 
13 1 7.04683 0.847346 2.46441 
29 1 7.3972 1.43203 1.22779 
37 1 8.03321 2.73447 1.22775 
1 1 6.18426 17.3998 2.46496 
5 1 5.35745 17.426 1.22892 
9 1 4.00357 17.5862 1.23237 
16 1 7.0445 16.1682 2.46441 
32 1 7.39646 15.5833 1.22779 
40 1 8.03291 14.2816 1.22775 
45 1 3.24162 17.2803 2.4687 
49 1 1.77132 17.4808 2.46381 
53 1 1.07725 17.4278 1.22701 
57 2 3.29551 15.8619 0.0113943 
4 1 10.9696 8.50784 2.46433 
8 1 11.7709 8.50781 1.22775 
12 1 13.169 8.50782 1.22775 
18 1 10.0976 7.27753 2.46434 
21 1 8.30602 3.39333 2.46434 
26 1 8.83198 4.73493 2.46434 
34 1 9.74341 6.69495 1.22775 
42 1 9.10546 5.39348 1.22775 
48 1 13.9067 8.50782 2.46434 
52 1 15.3318 8.50782 2.46434 
56 1 16.0591 8.50782 1.22775 
19 1 10.0976 9.73809 2.46434 
24 1 8.30599 13.6224 2.46434 
27 1 8.83192 12.2809 2.46434 
35 1 9.74337 10.3207 1.22775 
43 1 9.10544 11.6222 1.22775 
3 1 22.5779 8.50782 2.46433 
7 1 21.7766 8.50782 1.22775 
11 1 20.3782 8.50782 1.22775 
20 1 23.4482 7.27621 2.46434 
36 1 23.8023 6.69335 1.22775 
44 1 24.44 5.39145 1.22775 
47 1 19.6405 8.50782 2.46434 
51 1 18.2155 8.50782 2.46434 
55 1 17.4882 8.50782 1.22775 
17 1 23.4482 9.73942 2.46434 
33 1 23.8023 10.3223 1.22775 
41 1 24.44 11.6242 1.22775 
15 1 26.5032 0.846934 2.46434 
23 1 25.2407 3.39161 2.46433 
28 1 24.7136 4.73317 2.46434 
31 1 26.151 1.43115 1.22775 
39 1 25.5143 2.73339 1.22775 
2 1 27.3699 17.4021 2.46433 
6 1 28.1722 17.4021 1.22775 
10 1 29.5704 17.4021 1.22775 
14 1 26.5032 16.1687 2.46434 
22 1 25.2407 13.624 2.46433 
25 1 24.7136 12.2825 2.46434 
30 1 26.151 15.5845 1.22775 
38 1 25.5143 14.2822 1.22775 
46 1 30.3055 17.4018 2.46433 
50 1 31.7351 17.4017 2.46425 
54 1 32.4539 17.4048 1.2276 
ITEM: TIMESTEP
100
ITEM: NUMBER OF ATOMS
57
ITEM: BOX BOUNDS pp pp pp
-4.9743940729733271e-03 3.2812974394073002e+01
-2.9996197097647967e-03 1.7782999619709766e+01
-2.9342479068640765e-04 2.4732934247906857e+00
ITEM: ATOMS id type x y z 
13 1 7.04758 0.848399 2.46463 
29 1 7.39782 1.43312 1.22779 
37 1 8.03368 2.73546 1.22775 
1 1 6.18494 17.3985 2.46522 
5 1 5.35783 17.4268 1.22898 
9 1 4.00415 17.5849 1.23243 
16 1 7.04485 16.1671 2.46463 
32 1 7.39686 15.5824 1.22779 
40 1 8.03329 14.2808 1.22775 
45 1 3.24302 17.2765 2.46898 
49 1 1.77272 17.4792 2.46408 
53 1 1.07846 17.4288 1.22707 
57 2 3.29636 15.8587 0.0108036 
4 1 10.97 8.50795 2.46454 
8 1 11.7714 8.50787 1.22775 
12 1 13.1693 8.50787 1.22775 
18 1 10.0983 7.27773 2.46454 
21 1 8.30653 3.39408 2.46454 
26 1 8.83261 4.73554 2.46454 
34 1 9.744 6.69523 1.22775 
42 1 9.10614 5.39398 1.22775 
48 1 13.9069 8.50787 2.46454 
52 1 15.332 8.50787 2.46454 
56 1 16.0591 8.50787 1.22775 
19 1 10.0983 9.73806 2.46454 
24 1 8.30643 13.6218 2.46454 
27 1 8.83252 12.2805 2.46454 
35 1 9.74394 10.3207 1.22775 
43 1 9.1061 11.6219 1.22775 
3 1 22.5776 8.50787 2.46454 
7 1 21.7762 8.50787 1.22775 
11 1 20.3781 8.50787 1.22775 
20 1 23.4475 7.27639 2.46454 
36 1 23.8015 6.69369 1.22775 
44 1 24.4392 5.392 1.22775 
47 1 19.6404 8.50787 2.46454 
51 1 18.2153 8.50787 2.46454 
55 1 17.4882 8.50787 1.22775 
17 1 23.4475 9.73936 2.46454 
33 1 23.8015 10.322 1.22775 
41 1 24.4392 11.6237 1.22775 
15 1 26.5026 0.848181 2.46454 
23 1 25.24 3.39255 2.46454 
28 1 24.7129 4.73387 2.46454 
31 1 26.1505 1.43223 1.22775 
39 1 25.5138 2.73428 1.22775 
2 1 27.3695 17.4009 2.46454 
6 1 28.1713 17.4009 1.22774 
10 1 29.5696 17.4008 1.22775 
14 1 26.5026 16.1676 2.46454 
22 1 25.24 13.6232 2.46454 
25 1 24.7129 12.2819 2.46454 
30 1 26.1505 15.5835 1.22775 
38 1 25.5138 14.2815 1.22775 
46 1 30.3046 17.4006 2.46454 
50 1 31.7338 17.4004 2.46444 
54 1 32.4528 17.4039 1.22759 
ITEM: TIMESTEP
110
ITEM: NUMBER OF ATOMS
57
ITEM: BOX BOUNDS pp pp pp
-7.6422938638130693e-03 3.2815642293863846e+01
-5.3651221306653630e-03 1.7785365122130667e+01
-4.3312524933535734e-06 2.4730043312524925e+00
ITEM: ATOMS id type x y z 
13 1 7.0461 0.84619 2.46435 
29 1 7.39635 1.43114 1.2278 
37 1 8.03226 2.73389 1.22775 
1 1 6.18313 17.4008 2.46496 
5 1 5.35564 17.4302 1.22902 
9 1 4.00193 17.587 1.23246 
16 1 7.04314 16.169 2.46435 
32 1 7.39525 15.5843 1.2278 
40 1 8.03182 14.2823 1.22775 
45 1 3.24093 17.2777 2.46873 
49 1 1.77041 17.4812 2.46383 
53 1 1.07625 17.4322 1.2271 
57 2 3.29417 15.8595 0.0108993 
4 1 10.9691 8.50788 2.46425 
8 1 11.7706 8.50778 1.22775 
12 1 13.1688 8.50777 1.22775 
18 1 10.0973 7.27727 2.46425 
21 1 8.30519 3.39266 2.46426 
26 1 8.83142 4.73443 2.46425 
34 1 9.74298 6.69463 1.22775 
42 1 9.105 5.393 1.22775 
48 1 13.9065 8.50777 2.46426 
52 1 15.3319 8.50777 2.46425 
56 1 16.059 8.50777 1.22775 
19 1 10.0973 9.73835 2.46425 
24 1 8.30507 13.6231 2.46426 
27 1 8.83131 12.2814 2.46425 
35 1 9.7429 10.3211 1.22775 
43 1 9.10495 11.6228 1.22775 
3 1 22.5786 8.50777 2.46425 
7 1 21.777 8.50777 1.22775 
11 1 20.3787 8.50777 1.22775 
20 1 23.4486 7.27592 2.46425 
36 1 23.8027 6.69304 1.22775 
44 1 24.4404 5.39103 1.22775 
47 1 19.641 8.50777 2.46426 
51 1 18.2156 8.50777 2.46425 
55 1 17.4884 8.50777 1.22775 
17 1 23.4486 9.73962 2.46425 
33 1 23.8027 10.3225 1.22775 
41 1 24.4404 11.6245 1.22775 
15 1 26.5042 0.846113 2.46426 
23 1 25.2415 3.39107 2.46425 
28 1 24.7142 4.7327 2.46425 
31 1 26.1521 1.4303 1.22775 
39 1 25.5153 2.73271 1.22775 
2 1 27.3711 17.4031 2.46425 
6 1 28.1732 17.4031 1.22775 
10 1 29.5718 17.4031 1.22775 
14 1 26.5042 16.1694 2.46426 
22 1 25.2415 13.6245 2.46425 
25 1 24.7142 12.2828 2.46425 
30 1 26.1521 15.5852 1.22775 
38 1 25.5153 14.2828 1.22775 
46 1 30.307 17.4028 2.46425 
50 1 31.7366 17.4026 2.46415 
54 1 32.4556 17.4064 1.22759 
ITEM: TIMESTEP
120
ITEM: NUMBER OF ATOMS
57
ITEM: BOX BOUNDS pp pp pp
-5.9821330305002106e-03 3.2813982133030542e+01
-3.5764967108819923e-03 1.7783576496710882e+01
-1.8988953279864808e-04 2.4731898895327977e+00
ITEM: ATOMS id type x y z 
13 1 7.04712 0.847679 2.46454 
29 1 7.39724 1.43265 1.22781 
37 1 8.03299 2.73519 1.22775 
1 1 6.18398 17.3991 2.46519 
5 1 5.35635 17.4302 1.22907 
9 1 4.00285 17.585 1.2325 
16 1 7.04374 16.1675 2.46454 
32 1 7.39591 15.583 1.2278 
40 1 8.03245 14.2812 1.22775 
45 1 3.24246 17.2741 2.46897 
49 1 1.77211 17.4791 2.46407 
53 1 1.07798 17.4323 1.22714 
57 2 3.29541 15.8563 0.0103945 
4 1 10.9696 8.50802 2.46444 
8 1 11.7711 8.50787 1.22775 
12 1 13.1691 8.50785 1.22775 
18 1 10.0981 7.27756 2.46444 
21 1 8.30595 3.39378 2.46444 
26 1 8.83225 4.73525 2.46444 
34 1 9.74376 6.69504 1.22775 
42 1 9.10585 5.39367 1.22775 
48 1 13.9067 8.50785 2.46444 
52 1 15.332 8.50785 2.46444 
56 1 16.0591 8.50785 1.22775 
19 1 10.098 9.73829 2.46444 
24 1 8.30577 13.6223 2.46444 
27 1 8.8321 12.2809 2.46444 
35 1 9.74364 10.321 1.22775 
43 1 9.10577 11.6223 1.22775 
3 1 22.5781 8.50785 2.46444 
7 1 21.7765 8.50785 1.22775 
11 1 20.3783 8.50785 1.22775 
20 1 23.4478 7.27619 2.46444 
36 1 23.8018 6.69339 1.22775 
44 1 24.4395 5.39169 1.22775 
47 1 19.6407 8.50785 2.46444 
51 1 18.2154 8.50785 2.46444 
55 1 17.4883 8.50785 1.22775 
17 1 23.4478 9.7395 2.46444 
33 1 23.8018 10.3223 1.22775 
41 1 24.4395 11.624 1.22775 
15 1 26.5032 0.847782 2.46444 
23 1 25.2407 3.39224 2.46444 
28 1 24.7133 4.7335 2.46444 
31 1 26.1512 1.43184 1.22775 
39 1 25.5145 2.73401 1.22775 
2 1 27.3702 17.4014 2.46443 
6 1 28.172 17.4014 1.22774 
10 1 29.5706 17.4014 1.22775 
14 1 26.5032 16.1679 2.46444 
22 1 25.2407 13.6235 2.46444 
25 1 24.7133 12.2822 2.46444 
30 1 26.1512 15.5839 1.22775 
38 1 25.5145 14.2817 1.22775 
46 1 30.3057 17.401 2.46443 
50 1 31.7352 17.4009 2.46433 
54 1 32.4541 17.405 1.22759 
ITEM: TIMESTEP
130
ITEM: NUMBER OF ATOMS
57
ITEM: BOX BOUNDS pp pp pp
-5.0804671754056344e-03 3.2813080467175439e+01
-3.4973818372808401e-03 1.7783497381837282e+01
-2.9047856005784818e-04 2.4732904785600569e+00
ITEM: ATOMS id type x y z 
13 1 7.04777 0.847536 2.46466 
29 1 7.39772 1.43272 1.22782 
37 1 8.03325 2.73536 1.22775 
1 1 6.1842 17.3991 2.46536 
5 1 5.35629 17.4328 1.22915 
9 1 4.00295 17.5842 1.23256 
16 1 7.04363 16.1674 2.46466 
32 1 7.39596 15.583 1.22782 
40 1 8.03254 14.2813 1.22775 
45 1 3.24341 17.2709 2.46915 
49 1 1.77325 17.4784 2.46426 
53 1 1.07917 17.4351 1.22722 
57 2 3.29599 15.8533 0.00977919 
4 1 10.9699 8.50814 2.46454 
8 1 11.7714 8.5079 1.22775 
12 1 13.1693 8.50785 1.22775 
18 1 10.0986 7.27752 2.46454 
21 1 8.3063 3.39386 2.46454 
26 1 8.83276 4.73527 2.46454 
34 1 9.7443 6.69501 1.22775 
42 1 9.10643 5.39364 1.22775 
48 1 13.9068 8.50785 2.46454 
52 1 15.3321 8.50785 2.46454 
56 1 16.0591 8.50785 1.22775 
19 1 10.0985 9.73848 2.46454 
24 1 8.30602 13.6224 2.46454 
27 1 8.83256 12.2811 2.46454 
35 1 9.74412 10.3212 1.22775 
43 1 9.1063 11.6226 1.22775 
3 1 22.5778 8.50785 2.46454 
7 1 21.7762 8.50785 1.22775 
11 1 20.3782 8.50785 1.22775 
20 1 23.4473 7.27611 2.46454 
36 1 23.8012 6.69328 1.22775 
44 1 24.4388 5.39163 1.22775 
47 1 19.6406 8.50785 2.46454 
51 1 18.2153 8.50785 2.46454 
55 1 17.4883 8.50785 1.22775 
17 1 23.4473 9.73959 2.46454 
33 1 23.8012 10.3224 1.22775 