LAMMPS (3 Mar 2020)
Reading data file ...
  orthogonal box = (0 0 0) to (32.808 17.78 2.473)
  4 by 2 by 1 MPI processor grid
  reading atoms ...
  57 atoms
  read_data CPU = 0.0172151 secs
WARNING: Using 'neigh_modify every 1 delay 0 check yes' setting during minimization (../min.cpp:190)
WARNING: Total cutoff < 2*bond cutoff. May need to use an increased neighbor list skin. (../pair_reaxc.cpp:413)
Neighbor list info ...
  update every 1 steps, delay 0 steps, check yes
  max neighbors/atom: 2000, page size: 100000
  master list distance cutoff = 9.5
  ghost atom cutoff = 9.5
  binsize = 4.75, bins = 7 4 1
  2 neighbor lists, perpetual/occasional/extra = 2 0 0
  (1) pair reax/c, perpetual
      attributes: half, newton off, ghost
      pair build: half/bin/newtoff/ghost
      stencil: half/ghost/bin/3d/newtoff
      bin: standard
  (2) fix qeq/reax, perpetual, copy from (1)
      attributes: half, newton off, ghost
      pair build: copy
      stencil: none
      bin: none
Setting up cg style minimization ...
  Unit style    : real
  Current step  : 0
Per MPI rank memory allocation (min/avg/max) = 20.57 | 20.88 | 21.31 Mbytes
Step Temp E_pair E_mol TotEng Press 
       0            0   -11139.979            0   -11139.979    47664.387 
      21            0    -11203.41            0    -11203.41    65816.182 
Loop time of 0.60556 on 8 procs for 21 steps with 57 atoms

99.3% CPU use with 8 MPI tasks x no OpenMP threads

Minimization stats:
  Stopping criterion = energy tolerance
  Energy initial, next-to-last, final = 
        -11139.9791419     -11203.4097186      -11203.409817
  Force two-norm initial, final = 552.045 147.554
  Force max component initial, final = 428.495 92.5117
  Final line search alpha, max atom move = 0.000135104 0.0124987
  Iterations, force evaluations = 21 105

MPI task timing breakdown:
Section |  min time  |  avg time  |  max time  |%varavg| %total
---------------------------------------------------------------
Pair    | 0.47895    | 0.48767    | 0.50073    |   1.0 | 80.53
Neigh   | 0          | 0          | 0          |   0.0 |  0.00
Comm    | 0.0022847  | 0.015269   | 0.024115   |   5.9 |  2.52
Output  | 5.8419e-05 | 7.7669e-05 | 0.00014513 |   0.0 |  0.01
Modify  | 0.10138    | 0.10144    | 0.10147    |   0.0 | 16.75
Other   |            | 0.001104   |            |       |  0.18

Nlocal:    7.125 ave 11 max 3 min
Histogram: 2 0 2 0 0 0 0 1 1 2
Nghost:    716.375 ave 745 max 694 min
Histogram: 1 2 1 0 0 1 1 1 0 1
Neighs:    1111.38 ave 1705 max 472 min
Histogram: 2 0 2 0 0 0 0 1 1 2

Total # of neighbors = 8891
Ave neighs/atom = 155.982
Neighbor list builds = 0
Dangerous builds = 0
WARNING: Using 'neigh_modify every 1 delay 0 check yes' setting during minimization (../min.cpp:190)
WARNING: Total cutoff < 2*bond cutoff. May need to use an increased neighbor list skin. (../pair_reaxc.cpp:413)
Setting up cg style minimization ...
  Unit style    : real
  Current step  : 21
Per MPI rank memory allocation (min/avg/max) = 20.57 | 20.88 | 21.31 Mbytes
Step Temp E_pair E_mol TotEng Press 
      21            0    -11203.41            0    -11203.41    65816.182 
      22            0    -11203.41            0    -11203.41    65816.052 
Loop time of 0.0396524 on 8 procs for 1 steps with 57 atoms

99.3% CPU use with 8 MPI tasks x no OpenMP threads

Minimization stats:
  Stopping criterion = energy tolerance
  Energy initial, next-to-last, final = 
         -11203.409817      -11203.409817     -11203.4098638
  Force two-norm initial, final = 147.554 147.549
  Force max component initial, final = 92.5117 92.5073
  Final line search alpha, max atom move = 0.000135118 0.0124994
  Iterations, force evaluations = 1 6

MPI task timing breakdown:
Section |  min time  |  avg time  |  max time  |%varavg| %total
---------------------------------------------------------------
Pair    | 0.031194   | 0.031803   | 0.032607   |   0.3 | 80.21
Neigh   | 0          | 0          | 0          |   0.0 |  0.00
Comm    | 0.00016677 | 0.00096565 | 0.0015791  |   0.0 |  2.44
Output  | 0          | 0          | 0          |   0.0 |  0.00
Modify  | 0.0067094  | 0.0067122  | 0.0067141  |   0.0 | 16.93
Other   |            | 0.0001711  |            |       |  0.43

Nlocal:    7.125 ave 11 max 3 min
Histogram: 2 0 2 0 0 0 0 1 1 2
Nghost:    716.375 ave 745 max 694 min
Histogram: 1 2 1 0 0 1 1 1 0 1
Neighs:    1110.12 ave 1699 max 472 min
Histogram: 2 0 2 0 0 0 0 1 1 2

Total # of neighbors = 8881
Ave neighs/atom = 155.807
Neighbor list builds = 0
Dangerous builds = 0
WARNING: Using 'neigh_modify every 1 delay 0 check yes' setting during minimization (../min.cpp:190)
WARNING: Total cutoff < 2*bond cutoff. May need to use an increased neighbor list skin. (../pair_reaxc.cpp:413)
Setting up cg style minimization ...
  Unit style    : real
  Current step  : 22
WARNING: Energy due to 3 extra global DOFs will be included in minimizer energies
Per MPI rank memory allocation (min/avg/max) = 20.57 | 20.88 | 21.31 Mbytes
Step Temp E_pair E_mol TotEng Press Volume 
      22            0    -11203.41            0    -11203.41    65816.052    1442.5658 
     849            0   -11212.971            0   -11212.971   -612.57997    1443.2921 
Loop time of 7.5453 on 8 procs for 827 steps with 57 atoms

99.4% CPU use with 8 MPI tasks x no OpenMP threads

Minimization stats:
  Stopping criterion = energy tolerance
  Energy initial, next-to-last, final = 
        -11203.4098638     -11212.9708953     -11212.9710069
  Force two-norm initial, final = 2530.1 27.0734
  Force max component initial, final = 1983.87 15.5494
  Final line search alpha, max atom move = 1.19367e-05 0.000185608
  Iterations, force evaluations = 827 1388

MPI task timing breakdown:
Section |  min time  |  avg time  |  max time  |%varavg| %total
---------------------------------------------------------------
Pair    | 6.136      | 6.2571     | 6.4949     |   4.5 | 82.93
Neigh   | 0          | 0          | 0          |   0.0 |  0.00
Comm    | 0.028922   | 0.26587    | 0.38826    |  22.0 |  3.52
Output  | 0.002194   | 0.0028802  | 0.0050589  |   1.6 |  0.04
Modify  | 0.98396    | 0.98424    | 0.98458    |   0.0 | 13.04
Other   |            | 0.03522    |            |       |  0.47

Nlocal:    7.125 ave 11 max 3 min
Histogram: 2 0 2 0 0 0 0 1 1 2
Nghost:    716.375 ave 745 max 694 min
Histogram: 1 2 1 0 0 1 1 1 0 1
Neighs:    1110.12 ave 1699 max 472 min
Histogram: 2 0 2 0 0 0 0 1 1 2

Total # of neighbors = 8881
Ave neighs/atom = 155.807
Neighbor list builds = 0
Dangerous builds = 0
WARNING: Using 'neigh_modify every 1 delay 0 check yes' setting during minimization (../min.cpp:190)
WARNING: Total cutoff < 2*bond cutoff. May need to use an increased neighbor list skin. (../pair_reaxc.cpp:413)
Setting up cg style minimization ...
  Unit style    : real
  Current step  : 849
Per MPI rank memory allocation (min/avg/max) = 20.57 | 20.88 | 21.31 Mbytes
Step Temp E_pair E_mol TotEng Press 
     849            0   -11212.971            0   -11212.971   -612.57997 
     875            0   -11214.936            0   -11214.936   -1198.0901 
Loop time of 0.763833 on 8 procs for 26 steps with 57 atoms

99.3% CPU use with 8 MPI tasks x no OpenMP threads

Minimization stats:
  Stopping criterion = energy tolerance
  Energy initial, next-to-last, final = 
        -11212.9710069     -11214.9357479     -11214.9358544
  Force two-norm initial, final = 14.6306 28.72
  Force max component initial, final = 4.91367 11.3155
  Final line search alpha, max atom move = 0.00140803 0.0159326
  Iterations, force evaluations = 26 136

MPI task timing breakdown:
Section |  min time  |  avg time  |  max time  |%varavg| %total
---------------------------------------------------------------
Pair    | 0.59254    | 0.61313    | 0.62879    |   1.6 | 80.27
Neigh   | 0          | 0          | 0          |   0.0 |  0.00
Comm    | 0.0051771  | 0.02078    | 0.041508   |   8.8 |  2.72
Output  | 8.2194e-05 | 0.00010603 | 0.00018768 |   0.0 |  0.01
Modify  | 0.12828    | 0.12833    | 0.12837    |   0.0 | 16.80
Other   |            | 0.001485   |            |       |  0.19

Nlocal:    7.125 ave 11 max 3 min
Histogram: 2 0 2 0 0 0 0 1 1 2
Nghost:    713.375 ave 745 max 686 min
Histogram: 1 1 1 1 0 0 2 1 0 1
Neighs:    1111.88 ave 1703 max 472 min
Histogram: 2 0 2 0 0 0 0 1 1 2

Total # of neighbors = 8895
Ave neighs/atom = 156.053
Neighbor list builds = 0
Dangerous builds = 0
WARNING: Using 'neigh_modify every 1 delay 0 check yes' setting during minimization (../min.cpp:190)
WARNING: Total cutoff < 2*bond cutoff. May need to use an increased neighbor list skin. (../pair_reaxc.cpp:413)
Setting up cg style minimization ...
  Unit style    : real
  Current step  : 875
WARNING: Energy due to 3 extra global DOFs will be included in minimizer energies
Per MPI rank memory allocation (min/avg/max) = 20.57 | 20.88 | 21.31 Mbytes
Step Temp E_pair E_mol TotEng Press Volume 
     875            0   -11214.936            0   -11214.936   -1198.0901    1443.2921 
     936            0   -11215.108            0   -11215.108    288.92043    1443.0692 
Loop time of 0.6088 on 8 procs for 61 steps with 57 atoms

99.4% CPU use with 8 MPI tasks x no OpenMP threads

Minimization stats:
  Stopping criterion = energy tolerance
  Energy initial, next-to-last, final = 
        -11214.9358544     -11215.1077353     -11215.1077955
  Force two-norm initial, final = 61.5726 16.6063
  Force max component initial, final = 44.0486 9.33905
  Final line search alpha, max atom move = 9.84861e-06 9.19766e-05
  Iterations, force evaluations = 61 112

MPI task timing breakdown:
Section |  min time  |  avg time  |  max time  |%varavg| %total
---------------------------------------------------------------
Pair    | 0.48655    | 0.50571    | 0.51973    |   1.6 | 83.07
Neigh   | 0          | 0          | 0          |   0.0 |  0.00
Comm    | 0.002141   | 0.016097   | 0.035344   |   8.7 |  2.64
Output  | 0.00015698 | 0.00020127 | 0.00034937 |   0.0 |  0.03
Modify  | 0.083909   | 0.083938   | 0.083967   |   0.0 | 13.79
Other   |            | 0.002851   |            |       |  0.47

Nlocal:    7.125 ave 11 max 3 min
Histogram: 2 0 2 0 0 0 0 1 1 2
Nghost:    713.375 ave 745 max 686 min
Histogram: 1 1 1 1 0 0 2 1 0 1
Neighs:    1109.88 ave 1702 max 468 min
Histogram: 2 0 2 0 0 0 0 1 1 2

Total # of neighbors = 8879
Ave neighs/atom = 155.772
Neighbor list builds = 0
Dangerous builds = 0
WARNING: Using 'neigh_modify every 1 delay 0 check yes' setting during minimization (../min.cpp:190)
WARNING: Total cutoff < 2*bond cutoff. May need to use an increased neighbor list skin. (../pair_reaxc.cpp:413)
Setting up cg style minimization ...
  Unit style    : real
  Current step  : 936
Per MPI rank memory allocation (min/avg/max) = 20.57 | 20.88 | 21.31 Mbytes
Step Temp E_pair E_mol TotEng Press 
     936            0   -11215.108            0   -11215.108    288.92043 
     954            0   -11215.266            0   -11215.266   -555.83884 
Loop time of 0.552609 on 8 procs for 18 steps with 57 atoms

99.3% CPU use with 8 MPI tasks x no OpenMP threads

Minimization stats:
  Stopping criterion = energy tolerance
  Energy initial, next-to-last, final = 
        -11215.1077955     -11215.2658607     -11215.2659548
  Force two-norm initial, final = 12.2028 22.1557
  Force max component initial, final = 4.07186 9.5311
  Final line search alpha, max atom move = 0.003804 0.0362563
  Iterations, force evaluations = 18 96

MPI task timing breakdown:
Section |  min time  |  avg time  |  max time  |%varavg| %total
---------------------------------------------------------------
Pair    | 0.42295    | 0.4379     | 0.45174    |   1.5 | 79.24
Neigh   | 0          | 0          | 0          |   0.0 |  0.00
Comm    | 0.0027786  | 0.016571   | 0.031487   |   7.6 |  3.00
Output  | 5.7287e-05 | 7.3991e-05 | 0.00013556 |   0.0 |  0.01
Modify  | 0.097058   | 0.097082   | 0.097113   |   0.0 | 17.57
Other   |            | 0.0009842  |            |       |  0.18

Nlocal:    7.125 ave 11 max 3 min
Histogram: 2 0 2 0 0 0 0 1 1 2
Nghost:    713.375 ave 745 max 686 min
Histogram: 1 1 1 1 0 0 2 1 0 1
Neighs:    1110.38 ave 1702 max 470 min
Histogram: 2 0 2 0 0 0 0 1 1 2

Total # of neighbors = 8883
Ave neighs/atom = 155.842
Neighbor list builds = 0
Dangerous builds = 0
WARNING: Total cutoff < 2*bond cutoff. May need to use an increased neighbor list skin. (../pair_reaxc.cpp:413)
Setting up Verlet run ...
  Unit style    : real
  Current step  : 0
  Time step     : 0.25
Per MPI rank memory allocation (min/avg/max) = 19.44 | 19.76 | 20.18 Mbytes
Step Temp TotEng KinEng PotEng Press 
       0          300   -11165.188    50.077609   -11215.266    1030.4756 
     200     237.5388    -11144.66     39.65125   -11184.312    9596.5202 
     400    287.59279   -11116.123    48.006531   -11164.129    85016.684 
     600    354.47448   -11102.945    59.170781   -11162.116    4120.3407 
     800    291.70039   -11118.343    48.692193   -11167.035   -13299.229 
    1000    306.62543   -11116.394     51.18356   -11167.578    21418.853 
    1200    284.70774   -11130.513    47.524943   -11178.038    18068.933 
    1400    352.72465   -11115.437    58.878689   -11174.316   -12667.657 
    1600     366.4522   -11110.179    61.170166   -11171.349   -75866.104 
    1800    249.81938   -11120.935    41.701191   -11162.637   -49432.221 
    2000     303.9085   -11115.189    50.730037   -11165.919    11983.311 
    2200    336.40438    -11109.39    56.154423   -11165.544    46396.364 
    2400    290.40755   -11121.498    48.476386   -11169.974    17233.481 
    2600    327.41662   -11111.617    54.654138   -11166.271   -4919.8749 
    2800    325.66276   -11111.798    54.361374    -11166.16   -41516.246 
    3000    339.07442   -11119.653     56.60012   -11176.253    13800.251 
    3200    314.63035   -11121.865    52.519786   -11174.385    14052.452 
    3400    225.82941   -11125.227    37.696656   -11162.924    83718.093 
    3600    257.18778   -11107.315    42.931163   -11150.246   -60242.807 
    3800    290.49715   -11119.089    48.491343   -11167.581   -6271.7198 
    4000    316.08774   -11121.193    52.763061   -11173.956   -67360.994 
    4200     350.2398   -11107.878    58.463905   -11166.342   -71476.837 
    4400    350.68072   -11116.646    58.537507   -11175.184    9236.4325 
    4600      292.412   -11123.137    48.810979   -11171.948    27663.333 
    4800    280.91734   -11106.206     46.89223   -11153.098   -50882.352 
    5000    386.51806   -11094.281    64.519667   -11158.801    4565.6715 
    5200    293.58939   -11117.011    49.007515   -11166.019    9742.9654 
    5400    286.64184   -11126.078    47.847793   -11173.926   -19451.699 
    5600    388.52765   -11109.685    64.855119   -11174.541    2105.2454 
    5800    290.18254    -11120.29    48.438826   -11168.729   -9507.3044 
    6000    307.81539   -11114.909    51.382196   -11166.291   -583.72281 
    6200    326.40262   -11098.893    54.484876   -11153.378    25007.578 
    6400    306.30962   -11112.054    51.130845   -11163.185    56191.694 
    6600    343.34331   -11113.439    57.312707   -11170.752   -6658.4695 
    6800    236.78329   -11129.873    39.525136   -11169.398    31721.278 
    7000    285.78825   -11116.297    47.705308   -11164.002    26013.764 
    7200    394.91666   -11100.671    65.921607   -11166.592   -20053.486 
    7400    272.57434   -11114.113    45.499571   -11159.613   -37024.317 
    7600    293.15836    -11121.75    48.935565   -11170.685   -28659.961 
    7800    302.66449    -11108.89     50.52238   -11159.413    12431.072 
    8000     312.9029   -11107.748     52.23143   -11159.979   -29008.423 
    8200    278.72622    -11126.21    46.526475   -11172.736   -17287.053 
    8400    278.63157   -11124.314    46.510676   -11170.825   -29389.115 
    8600    289.91439    -11118.52    48.394066   -11166.914    7492.0348 
    8800    296.25427   -11123.312    49.452351   -11172.765   -53230.762 
    9000    279.15052   -11108.958    46.597302   -11155.555    38832.546 
    9200    321.53517   -11105.368    53.672375    -11159.04   -27175.455 
    9400    273.24499   -11121.952    45.611519   -11167.563     14082.43 
    9600    361.98542   -11103.989    60.424548   -11164.414    -42850.71 
    9800    292.77279   -11116.185    48.871204   -11165.056   -3781.6527 
   10000    268.94015   -11125.774    44.892932   -11170.667    34275.367 
   10200    317.02035    -11106.15    52.918738   -11159.069   -10004.711 
   10400    256.69122   -11115.132    42.848276    -11157.98    1211.8796 
   10600    302.36167   -11108.794    50.471831   -11159.266   -65606.753 
   10800    339.80416   -11100.586    56.721932   -11157.307   -7526.6038 
   11000    288.59405   -11116.589    48.173666   -11164.763    13462.773 
   11200    334.26331   -11120.914    55.797025   -11176.711   -45330.415 
   11400    297.58799   -11124.138    49.674984   -11173.813      21401.3 
   11600    366.08905   -11110.621    61.109547    -11171.73   -24073.715 
   11800    299.35145   -11121.811    49.969349    -11171.78    -24216.68 
   12000    258.62725   -11115.631    43.171448   -11158.802     58133.25 
   12200     334.7925   -11104.204     55.88536   -11160.089   -31295.535 
   12400    334.20839   -11098.576    55.787857   -11154.363    43719.944 
   12600    284.58533   -11121.126     47.50451    -11168.63   -73516.467 
   12800    323.35067   -11118.442    53.975428   -11172.417    1019.7936 
   13000    276.40549   -11126.431    46.139086   -11172.571   -52075.341 
   13200     348.6812   -11111.615    58.203736   -11169.818   -12843.241 
   13400    288.27064   -11111.785    48.119681   -11159.904   -12374.488 
   13600    259.92959   -11127.888    43.388841   -11171.277    95529.205 
   13800    337.04965   -11113.553    56.262135   -11169.815    4073.7007 
   14000    268.55518   -11114.932    44.828672   -11159.761   -13327.192 
   14200    298.36096   -11123.906    49.804011    -11173.71    -38910.59 
   14400    328.19836   -11124.286    54.784631    -11179.07    29674.398 
   14600    354.87046    -11105.62     59.23688   -11164.857    40054.351 
   14800    320.80064   -11109.409    53.549763   -11162.959   -13398.081 
   15000    312.45872   -11117.807    52.157285   -11169.964    34561.574 
   15200    226.71891    -11130.77    37.845137   -11168.615    46067.674 
   15400    285.07148   -11115.765    47.585661   -11163.351   -21451.048 
   15600    271.27778   -11117.366    45.283142    -11162.65   -61587.698 
   15800    234.50786   -11134.438    39.145309   -11173.583    92331.676 
   16000    317.94472   -11119.494    53.073038   -11172.567    43289.032 
   16200    296.48327   -11113.378    49.490577   -11162.869    2993.5938 
   16400    305.25451   -11102.265     50.95472    -11153.22   -22742.842 
   16600    300.80759   -11104.892    50.212415   -11155.104    23588.136 
   16800    319.69051   -11114.149    53.364455   -11167.514    -47275.57 
   17000    276.12928   -11130.057    46.092981    -11176.15   -4426.3094 
   17200    321.09704    -11124.77     53.59924   -11178.369   -51697.599 
   17400    298.91959   -11115.603    49.897261     -11165.5    -13248.41 
   17600    320.93072   -11117.784    53.571477   -11171.355   -20635.751 
   17800    296.32669   -11117.037     49.46444   -11166.501    24646.214 
   18000     295.7288   -11107.195    49.364637    -11156.56   -93387.006 
   18200    309.40638   -11117.373    51.647772   -11169.021    50317.707 
   18400     366.1776   -11113.057    61.124328   -11174.182    76305.276 
   18600    283.10036   -11125.603    47.256631    -11172.86   -4703.0349 
   18800    299.69462   -11116.152    50.026633   -11166.179    4372.4149 
   19000    325.82749   -11111.542    54.388872   -11165.931   -7141.5962 
   19200    239.51472   -11125.766    39.981082   -11165.747    69481.737 
   19400    310.77289   -11112.872    51.875878   -11164.748    8195.1062 
   19600    329.32972    -11112.13    54.973484   -11167.103   -62837.225 
   19800    248.62805   -11126.646    41.502328   -11168.149    25337.117 
   20000    246.85251   -11119.858    41.205945   -11161.064    28141.899 
   20200    286.23564   -11117.867    47.779988   -11165.646   -26773.805 
   20400    288.46595    -11124.21    48.152284   -11172.363   -26630.162 
   20600    220.21191   -11134.592    36.758953   -11171.351    -21637.92 
   20800     278.2637   -11115.436    46.449269   -11161.885    46627.959 
   21000    338.46003   -11104.598    56.497564   -11161.095    2221.5907 
   21200    281.79219   -11125.563    47.038264   -11172.601   -6201.6343 
   21400    259.64847   -11118.759    43.341915   -11162.101   -3728.0246 
   21600     311.2949   -11106.885    51.963014   -11158.848   -22255.556 
   21800    273.33243   -11127.053    45.626116   -11172.679   -14748.398 
   22000    326.51346   -11110.582    54.503378   -11165.085    1574.3573 
   22200    345.43591   -11106.032    57.662015   -11163.694    -20428.54 
   22400    269.86213     -11125.7    45.046833   -11170.747   -83815.458 
   22600    308.97678   -11112.014    51.576061    -11163.59   -33248.001 
   22800    314.17118   -11115.465    52.443138   -11167.909   -55139.366 
   23000     300.3961   -11124.497    50.143728   -11174.641    10355.028 
   23200    307.56479   -11110.279    51.340365   -11161.619   -11904.683 
   23400     294.5628   -11124.648    49.170002   -11173.818    22025.589 
   23600    282.53083   -11124.412    47.161561   -11171.574    7083.5534 
   23800    321.54955    -11113.96    53.674775   -11167.635     34472.19 
   24000    291.78686   -11114.293    48.706628   -11162.999   -9843.7691 
   24200    268.61595   -11128.237    44.838814   -11173.075    40296.227 
   24400     302.1947   -11115.561    50.443959   -11166.005   -17219.284 
   24600    272.70147   -11114.891    45.520792   -11160.412   -4658.8769 
   24800     273.1099   -11124.411    45.588969       -11170   -6149.2379 
   25000    287.02071   -11114.619    47.911037    -11162.53    3364.8206 
   25200     300.5584   -11102.555     50.17082   -11152.726   -43066.826 
   25400    293.27449   -11122.879    48.954951   -11171.834   -17547.826 
   25600    295.36507   -11119.264    49.303922   -11168.568    17548.904 
   25800    279.02176   -11115.617    46.575809   -11162.193    48591.771 
   26000    316.84194   -11125.577    52.888956   -11178.466    42630.772 
   26200    307.34801   -11117.279    51.304179   -11168.584    40250.652 
   26400    348.01184   -11110.293    58.092003   -11168.385   -14609.799 
   26600     278.8282    -11125.09    46.543498   -11171.634     8468.592 
   26800    237.21146   -11128.996     39.59661   -11168.593   -29800.735 
   27000    307.79535   -11111.672    51.378851   -11163.051   -47820.734 
   27200    270.96918   -11125.641    45.231629   -11170.873   -942.81673 
   27400    257.66544   -11123.283    43.010896   -11166.293    789.68236 
   27600    256.10351   -11115.432    42.750172   -11158.182   -15704.073 
   27800    295.97535   -11115.976    49.405792   -11165.381    12667.516 
   28000    353.90619   -11100.665    59.075919   -11159.741    11851.423 
   28200    275.62528   -11122.492    46.008851   -11168.501    39112.985 
   28400    300.84754   -11116.145    50.219085   -11166.364   -35553.635 
   28600     346.8096   -11106.902    57.891319   -11164.794   -11828.807 
   28800    294.65917   -11126.805    49.186089   -11175.991    4128.2556 
   29000    347.76533   -11111.542    58.050854   -11169.593   -7529.9086 
   29200    286.37902   -11112.926    47.803921    -11160.73    44679.924 
   29400    290.71523   -11118.956    48.527745   -11167.483   -33202.634 
   29600     349.6725   -11109.699    58.369209   -11168.069   -19454.493 
   29800    284.90022   -11113.003    47.557073    -11160.56   -38715.785 
   30000    304.60104   -11123.965    50.845639   -11174.811    977.30006 
   30200    298.92489   -11109.697    49.898146   -11159.595   -37802.838 
   30400    315.24926   -11110.937    52.623097    -11163.56    28416.531 
   30600    296.89506   -11116.055    49.559316   -11165.614    7453.6641 
   30800    294.19278   -11112.057    49.108237   -11161.165   -54371.217 
   31000    345.85465   -11098.495    57.731912   -11156.227   -28050.155 
   31200     327.1492   -11117.698    54.609499   -11172.307   -24747.358 
   31400    316.36839   -11117.178    52.809908   -11169.988    12281.383 
   31600    378.20714   -11106.313    63.132364   -11169.445   -23762.136 
   31800    319.71526   -11116.219    53.368585   -11169.588    63720.717 
   32000    305.46719   -11111.613    50.990221   -11162.603   -39817.133 
   32200    326.43381   -11104.868    54.490082   -11159.358    53380.833 
   32400    289.94882   -11121.418    48.399812   -11169.818    6683.6196 
   32600    330.66962   -11108.938    55.197146   -11164.135   -90113.859 
   32800    310.06232    -11116.09    51.757265   -11167.847    28395.594 
   33000    246.98111   -11129.158    41.227411   -11170.386    20505.466 
   33200    267.18946   -11110.907    44.600698   -11155.508   -14146.461 
   33400    285.41317   -11116.603    47.642696   -11164.245    44092.433 
   33600    265.10396   -11131.482    44.252575   -11175.734    7309.4381 
   33800    324.80783   -11111.481    54.218666     -11165.7   -14136.369 
   34000    313.46191   -11108.799    52.324743   -11161.124   -49007.597 
   34200    274.58509   -11127.116    45.835215   -11172.951   -10892.012 
   34400    293.42782   -11118.189    48.980546    -11167.17   -45262.358 
   34600    313.45962   -11115.686     52.32436   -11168.011   -16115.028 
   34800    293.61117   -11119.039    49.011152    -11168.05   -4879.8666 
   35000    304.27321   -11106.531    50.790917   -11157.321    3720.8385 
   35200    289.29461   -11117.439    48.290608   -11165.729   -6719.5075 
   35400    287.25052   -11121.068    47.949398   -11169.017    20266.964 
   35600    353.92816   -11107.814    59.079587   -11166.894    19132.177 
   35800    313.61757   -11113.302    52.350727   -11165.653    23647.897 
   36000     289.8212   -11123.134    48.378509   -11171.512   -48567.658 
   36200    300.72886     -11125.5    50.199274   -11175.699   -39720.898 
   36400    327.15826   -11109.328    54.611011   -11163.939   -26343.641 
   36600    290.39787   -11121.451     48.47477   -11169.926   -22495.239 
   36800     283.4088   -11119.152    47.308116    -11166.46    41955.001 
   37000    338.43811   -11115.039    56.493905   -11171.533    2252.9599 
   37200    325.70881   -11117.001    54.369061    -11171.37   -67521.635 
   37400     349.0173   -11100.381     58.25984   -11158.641     33840.45 
   37600    321.94015   -11122.721    53.739977   -11176.461   -19099.944 
   37800     319.9323   -11112.044    53.404815   -11165.448    44888.559 
   38000    334.29436   -11107.879    55.802208   -11163.681    -57142.83 
   38200    242.12586   -11129.168    40.416947   -11169.585   -2247.7755 
   38400    257.93367   -11123.644    43.055671   -11166.699   -24976.242 
   38600    311.37657   -11114.697    51.976647   -11166.674   -42258.589 
   38800    282.06429   -11123.368    47.083684   -11170.452   -1497.9663 
   39000    245.13356   -11131.568    40.919008   -11172.487    43967.701 
   39200    291.97394   -11114.603    48.737856   -11163.341   -28158.922 
   39400    359.61007   -11107.818    60.028041   -11167.846   -19044.992 
   39600    293.46867   -11124.834    48.987365   -11173.821   -36738.553 
   39800    343.91487   -11110.785    57.408114   -11168.193    26711.933 
   40000    339.11614   -11112.849    56.607085   -11169.456    41255.833 
   40200    303.16665   -11125.647    50.606203   -11176.253   -83238.328 
   40400    302.18526   -11115.845    50.442384   -11166.288    27919.666 
   40600    381.47472   -11086.932    63.677806    -11150.61    41815.264 
   40800    312.79732   -11110.758    52.213807   -11162.972   -51078.954 
   41000    318.44324   -11118.672    53.156253   -11171.828   -7199.0633 
   41200    329.90892   -11102.119    55.070166   -11157.189     16919.34 
   41400    331.50308   -11115.229    55.336272   -11170.566     82037.83 
   41600    277.75147   -11122.532    46.363765   -11168.896    -5403.706 
   41800    260.20141   -11117.626    43.434215    -11161.06    41141.773 
   42000    239.29603   -11108.689    39.944577   -11148.634    57633.642 
   42200    259.46198   -11125.384    43.310785   -11168.694    8962.1732 
   42400    217.73093   -11133.581    36.344815   -11169.926    50884.866 
   42600     357.2082   -11114.564    59.627108   -11174.191    12718.707 
   42800    309.51778   -11116.292    51.666369   -11167.958   -49172.648 
   43000    247.78682   -11128.093    41.361905   -11169.455   -66224.915 
   43200    289.39798   -11117.926    48.307862   -11166.234    26259.735 
   43400    326.34372   -11111.728    54.475044   -11166.203   -16304.778 
   43600    352.49983   -11094.386    58.841163   -11153.227    69648.426 
   43800    323.96591   -11114.653    54.078127   -11168.731   -36026.077 
   44000    271.77175   -11117.199    45.365598   -11162.565   -13031.474 
   44200    344.15858   -11100.648    57.448796   -11158.097   -9191.1258 
   44400     282.8813   -11120.885    47.220063   -11168.105    19174.589 
   44600    294.69306   -11122.339    49.191747   -11171.531    7991.4578 
   44800    354.25272   -11104.798    59.133764   -11163.932     28051.35 
   45000    283.01434   -11115.252    47.242272   -11162.494   -51055.631 
   45200    283.48178   -11116.775      47.3203   -11164.095    57734.585 
   45400    357.82549   -11099.919    59.730149   -11159.649    69298.606 
   45600    296.86854   -11116.492    49.554888   -11166.047    -31323.31 
   45800    310.20348   -11119.326    51.780828   -11171.107   -15463.311 
   46000    294.78599   -11121.994    49.207258   -11171.201   -26621.861 
   46200     359.4162    -11104.46    59.995679   -11164.456    27678.691 
   46400    280.92257   -11122.362    46.893103   -11169.255   -33816.774 
   46600    282.31373   -11118.872    47.125322   -11165.997    26723.015 
   46800     343.2195   -11111.321    57.292039   -11168.613    24468.988 
   47000    290.99487   -11120.525    48.574423   -11169.099    27474.815 
   47200    269.91797   -11134.513    45.056154   -11179.569    37944.102 
   47400    296.27269   -11116.786    49.455426   -11166.241     28526.87 
   47600    306.45332   -11114.306    51.154831   -11165.461    42363.475 
   47800    297.26943   -11125.047    49.621807   -11174.669    -44216.09 
   48000    269.16879   -11115.896    44.931097   -11160.827   -81423.463 
   48200    299.82896   -11108.789    50.049058   -11158.838    14218.019 
   48400    289.67529   -11123.995    48.354153   -11172.349   -46609.674 
   48600     247.2286   -11135.462    41.268724   -11176.731   -56445.466 
   48800    321.66811   -11115.969    53.694566   -11169.664    20051.844 
   49000    285.26504   -11117.913    47.617971   -11165.531   -48271.332 
   49200    252.80341   -11125.891    42.199301    -11168.09   -1879.2597 
   49400    305.11025   -11105.763     50.93064   -11156.694    58167.306 
   49600    269.75856   -11115.654    45.029546   -11160.683   -87159.663 
   49800    258.85283   -11133.945    43.209102   -11177.154   -24843.433 
   50000    276.89939   -11125.094    46.221531   -11171.316   -45253.108 
   50200    311.04339   -11115.847    51.921031   -11167.768    26387.385 
   50400    327.62105   -11114.633    54.688262   -11169.321   -31638.165 
   50600    253.39728   -11126.664    42.298432   -11168.962   -4374.9459 
   50800     305.3408   -11112.319    50.969124   -11163.288    52769.057 
   51000    357.38603   -11112.628    59.656792   -11172.284   -408.69809 
   51200    270.46307   -11129.968    45.147147   -11175.115   -52156.784 
   51400    315.01027   -11113.946    52.583203   -11166.529   -55936.442 
   51600    320.32312   -11117.186    53.470054   -11170.656    34238.455 
   51800    253.01325     -11128.6    42.234329   -11170.835   -43431.014 
   52000    330.49893    -11109.23    55.168654   -11164.399   -29046.549 
   52200    297.34742   -11116.974    49.634826   -11166.609   -58242.692 
   52400    283.82441   -11124.484    47.377493   -11171.862    116043.87 
   52600    340.64244   -11106.772    56.861863   -11163.634     17551.31 
   52800    288.95404   -11118.562    48.233758   -11166.795     30292.67 
   53000    221.61615   -11139.211    36.993357   -11176.204    9003.5383 
   53200    289.17885   -11127.065    48.271284   -11175.337    17281.324 
   53400    269.95541   -11116.403    45.062405   -11161.466    18380.541 
   53600    371.23382    -11097.61     61.96834   -11159.578   -14636.406 
   53800    276.67249   -11116.635    46.183655   -11162.819   -60242.112 
   54000    300.36306   -11116.708    50.138212   -11166.846    13971.668 
   54200    343.11881   -11102.323    57.275231   -11159.598   -73179.191 
   54400    272.47646    -11121.44    45.483231   -11166.923   -3937.7803 
   54600    297.50293   -11120.087    49.660784   -11169.748   -54122.415 
   54800    330.36943   -11109.049    55.147037   -11164.196    32900.601 
   55000    311.85036   -11112.358    52.055734   -11164.414   -11685.459 
   55200    264.67308    -11125.52     44.18065     -11169.7   -37869.009 
   55400    317.34908   -11116.139     52.97361   -11169.113    40024.218 
   55600      334.551   -11113.223    55.845047   -11169.068     58260.73 
   55800    293.93366    -11132.32    49.064983   -11181.385    54752.653 
   56000    317.67226   -11119.377    53.027557   -11172.405    72777.315 
   56200    302.11635   -11116.789    50.430882    -11167.22    13278.828 
   56400    227.24916   -11128.846    37.933648    -11166.78    -6274.029 
   56600    280.10011   -11109.404    46.755812    -11156.16    48271.304 
   56800    291.38618   -11114.593    48.639744   -11163.233    18420.542 
   57000    286.11217   -11119.574    47.759379   -11167.333   -26942.771 
   57200    358.79685   -11102.377    59.892295    -11162.27    4601.8732 
   57400    303.90051   -11122.143    50.728704   -11172.872    27434.516 
   57600    317.78441   -11118.743    53.046278    -11171.79   -26153.786 
   57800    344.06271    -11100.72    57.432793   -11158.153    38021.495 
   58000    325.91222   -11114.301    54.403016   -11168.704    65276.475 
   58200    298.68865   -11113.694    49.858711   -11163.553    -18694.83 
   58400    366.13241   -11105.585    61.116786   -11166.702    65423.675 
   58600    301.81605     -11124.5    50.380753   -11174.881    644.32558 
   58800    294.70997   -11119.185    49.194569   -11168.379    66668.674 
   59000    303.50533   -11102.967    50.662738    -11153.63   -49799.796 
   59200    319.20726   -11118.019    53.283788   -11171.303    88130.672 
   59400    283.51029   -11123.426    47.325058   -11170.751   -2865.6227 
   59600    315.14489   -11107.063    52.605676   -11159.669    14469.391 
   59800    311.95132   -11114.271    52.072588   -11166.343     51423.88 
   60000    242.49643   -11133.869    40.478804   -11174.348    24066.239 
   60200    278.18695   -11117.761    46.436458   -11164.198   -7845.4048 
   60400    283.67371   -11114.968    47.352337   -11162.321    54364.846 
   60600     375.6018   -11102.506    62.697467   -11165.204   -39790.325 
   60800    304.40259   -11118.133    50.812512   -11168.945   -83385.132 
   61000    332.29157   -11108.231    55.467891   -11163.699    4348.5311 
   61200     350.0153   -11092.486    58.426432   -11150.912   -17057.195 
   61400    335.38162   -11113.977    55.983699   -11169.961    47806.028 
   61600    299.44981   -11125.968    49.985769   -11175.953   -16960.633 
   61800    343.13105   -11108.464    57.277274   -11165.741    6142.2735 
   62000    219.15872   -11118.504    36.583149   -11155.088   -63308.185 
   62200    281.60702   -11117.646    47.007354   -11164.653    18202.638 
   62400    338.37683   -11098.787    56.483675   -11155.271   -24712.892 
   62600    324.73557   -11115.626    54.206603   -11169.832   -36822.425 
   62800    308.44364   -11119.748    51.487067   -11171.235   -42820.118 
   63000     277.8514   -11124.099    46.380445   -11170.479   -2003.0505 
   63200    317.03061   -11111.058     52.92045   -11163.979    36863.771 
   63400    272.69088   -11118.051    45.519024    -11163.57   -8139.9019 
   63600    281.57358    -11124.49    47.001773   -11171.491    2350.5248 
   63800    330.32601    -11106.62    55.139789    -11161.76    7566.9789 
   64000    310.01859   -11111.645    51.749966   -11163.395    3095.2039 
   64200    267.54733   -11123.182    44.660435   -11167.842   -8793.3503 
   64400    301.35385   -11105.513    50.303601   -11155.817    228.69805 
   64600    287.95681   -11116.082    48.067294   -11164.149   -54737.738 
   64800    312.40419   -11118.732    52.148183    -11170.88    -19461.08 
   65000    283.97428   -11130.958     47.40251   -11178.361    15655.236 
   65200     268.1338   -11113.591    44.758332    -11158.35    48187.977 
   65400     302.2411   -11106.966    50.451706   -11157.418   -42134.344 
   65600     296.0591   -11120.691    49.419772   -11170.111    897.83462 
   65800    279.77783   -11121.202    46.702015   -11167.904   -6769.4576 
   66000    329.68679   -11096.156    55.033087   -11151.189   -30792.953 
   66200    313.36385   -11111.942    52.308375   -11164.251    9322.8765 
   66400    277.24824   -11120.393    46.279763   -11166.673    8200.5964 
   66600    304.18563   -11101.362    50.776296   -11152.138    55607.113 
   66800    302.31722   -11119.668    50.464411   -11170.132   -81740.936 
   67000    318.58377   -11116.165    53.179711   -11169.344   -17956.095 
   67200    324.96301   -11106.609    54.244568   -11160.853   -27372.434 
   67400    275.03711   -11126.667     45.91067   -11172.577    -7290.021 
   67600    286.18499   -11120.029    47.771533   -11167.801    51280.508 
   67800    299.64102   -11115.881    50.017687   -11165.899    -39022.37 
   68000    278.66703   -11120.493    46.516595    -11167.01   -71211.194 
   68200    302.90796   -11113.471    50.563021   -11164.034     32904.49 
   68400    312.71123   -11104.286    52.199436   -11156.486    55279.763 
   68600    278.53502   -11119.198     46.49456   -11165.693   -18021.014 
   68800    312.87267   -11119.716    52.226384   -11171.943   -4875.9243 
   69000     243.9353   -11136.297    40.718988   -11177.016    18103.512 
   69200    299.14368   -11120.871    49.934667   -11170.806    56220.325 
   69400    275.51097   -11111.841    45.989769    -11157.83   -59396.192 
   69600    395.11395   -11093.886     65.95454   -11159.841    53803.122 
   69800    314.09944    -11114.83    52.431163   -11167.262    23099.151 
   70000    314.54246   -11114.505    52.505114    -11167.01    9621.0138 
   70200    275.75415   -11126.807    46.030361   -11172.837    53219.117 
   70400    330.78072   -11121.411    55.215691   -11176.627     17543.52 
   70600    318.43545   -11112.469    53.154953   -11165.624   -20201.534 
   70800    271.39521   -11118.305    45.302744   -11163.608   -22055.641 
   71000    257.40008   -11127.784    42.966602   -11170.751     -38946.3 
   71200     312.3036   -11110.331    52.131392   -11162.463    32075.277 
   71400    339.11221   -11117.749    56.606428   -11174.356    31732.325 
   71600    281.43689   -11127.824    46.978955   -11174.802     8771.185 
   71800    280.12702   -11114.199    46.760305    -11160.96   -23150.939 
   72000     293.1214   -11117.063    48.929396   -11165.993    39353.511 
   72200    260.19302   -11128.362    43.432814   -11171.794     17148.02 
   72400    290.36092   -11110.407    48.468601   -11158.876    2731.8607 
   72600    303.05086   -11112.579    50.586875   -11163.166   -4864.9326 
   72800     285.7847   -11124.401    47.704715   -11172.106    14546.779 
   73000      284.856   -11121.671    47.549691   -11169.221    72135.877 
   73200    267.31955   -11112.887    44.622414   -11157.509    31396.444 
   73400    258.95557   -11129.586    43.226253   -11172.812     29037.37 
   73600    269.33225   -11120.981    44.958383    -11165.94    1750.1745 
   73800    306.53386   -11109.204    51.168276   -11160.372    39452.355 
   74000    320.88593   -11111.147       53.564   -11164.711    33893.161 
   74200    290.64529   -11124.915     48.51607   -11173.431   -8865.5729 
   74400    345.67974   -11108.787    57.702716    -11166.49   -18429.733 
   74600    279.92122   -11120.931    46.725951   -11167.657   -44948.322 
   74800    282.86346    -11124.13    47.217086   -11171.347    29341.443 
   75000    337.53267   -11105.863    56.342763   -11162.206   -14553.422 
   75200       321.05    -11112.81    53.591388   -11166.402    21289.226 
   75400    303.55637   -11117.811    50.671258   -11168.482   -18298.362 
   75600    353.97108    -11101.24    59.086751   -11160.327   -44228.004 
   75800    301.83821   -11105.838    50.384453   -11156.223    9038.6787 
   76000     292.9607   -11122.788    48.902572   -11171.691    4793.2738 
   76200    265.83564   -11127.584    44.374711   -11171.959   -28024.864 
   76400    360.14985   -11106.895    60.118145   -11167.013   -43548.549 
   76600    279.99316   -11117.774     46.73796   -11164.512   -37349.955 
   76800    307.71415   -11112.468    51.365296   -11163.833   -65724.999 
   77000    334.81168   -11108.235    55.888562   -11164.124   -23433.708 
   77200    280.65766   -11119.356    46.848881   -11166.205   -5226.3092 
   77400    317.08797   -11115.818    52.930024   -11168.748   -1199.2394 
   77600     305.0499   -11108.787    50.920565   -11159.708   -73773.857 
   77800    285.96617   -11122.559    47.735007   -11170.294     35767.15 
   78000    313.10236   -11110.396    52.264726   -11162.661   -49377.381 
   78200    343.87956   -11110.853    57.402221   -11168.255   -25241.082 
   78400    291.09538   -11121.431    48.591202   -11170.022    73786.911 
   78600    368.51249    -11102.83    61.514082   -11164.345    18471.721 
   78800    330.50141   -11113.162    55.169067   -11168.331    26929.394 
   79000    305.76092   -11122.374    51.039253   -11173.413     12159.94 
   79200    325.55163   -11100.653    54.342824   -11154.996   -28371.958 
   79400    336.60028   -11114.039    56.187124   -11170.226    1676.7375 
   79600    306.48861   -11116.137    51.160722   -11167.297    -8999.507 
   79800    335.19651    -11105.66    55.952799   -11161.613   -38264.926 
   80000    288.38705    -11110.11    48.139112   -11158.249    -5044.766 
   80200    273.16866   -11122.303    45.598777   -11167.902   -23185.437 
   80400    298.03778    -11110.18    49.750064    -11159.93    25646.611 
   80600    324.78758   -11108.837    54.215284   -11163.052    27951.631 
   80800    369.57098   -11114.759     61.69077    -11176.45   -5069.3487 
   81000    252.41106   -11120.488    42.133808   -11162.622   -31477.142 
   81200    346.35716   -11103.362    57.815794   -11161.178    47172.545 
   81400    240.11345   -11119.345    40.081024   -11159.427    52194.565 
   81600    252.97821   -11118.557    42.228479   -11160.786   -39092.337 
   81800    348.12067   -11104.085    58.110169   -11162.195    44266.057 
   82000     270.2195   -11121.372    45.106488   -11166.479    55780.032 
   82200    326.59315   -11112.697    54.516681   -11167.213   -34389.811 
   82400    345.19636   -11106.531    57.622028   -11164.153     1769.216 
   82600    294.86021   -11123.417    49.219648   -11172.637   -20190.967 
   82800    301.80401   -11108.506    50.378744   -11158.885    42232.103 
   83000    327.10409   -11121.534     54.60197   -11176.136    26318.778 
   83200    226.15009   -11130.199    37.750186   -11167.949    37207.219 
   83400    294.20036   -11116.875    49.109502   -11165.985   -45536.617 
   83600     290.4801   -11113.967    48.488497   -11162.456    22311.332 
   83800    331.26382   -11104.085    55.296333   -11159.382    16458.546 
   84000    312.00458   -11117.734    52.081478   -11169.816    -3883.791 
   84200    342.92634   -11099.541    57.243104   -11156.784   -22794.626 
   84400    270.36197   -11114.321     45.13027   -11159.451    32201.568 
   84600    221.85549   -11121.455    37.033308   -11158.488   -51284.713 
   84800    291.92465   -11122.259    48.729628   -11170.989    40779.718 
   85000    298.62479   -11121.431    49.848052   -11171.279    24631.546 
   85200    369.00796   -11106.164    61.596787   -11167.761   -43596.395 
   85400    325.56821   -11118.426    54.345591   -11172.772    28560.064 
   85600    241.43131    -11130.45    40.301008   -11170.751    27821.763 
   85800    289.04393   -11117.506    48.248762   -11165.755   -7213.8075 
   86000    335.08313   -11107.833    55.933873   -11163.767    7223.0317 
   86200    279.03969   -11118.706    46.578802   -11165.285   -30129.819 
   86400    215.43779   -11123.021    35.962032   -11158.983   -13554.024 
   86600    375.94919   -11103.226    62.755455   -11165.982   -867.78792 
   86800    331.32247   -11114.054    55.306124    -11169.36   -19664.941 
   87000    278.68026   -11118.269    46.518803   -11164.788    114442.57 
   87200    256.39543   -11129.018    42.798901   -11171.817   -15372.089 
   87400    298.94418   -11112.626    49.901366   -11162.527    21551.812 
   87600    273.39652   -11118.648    45.636814   -11164.285   -20890.003 
   87800    249.01341   -11133.677    41.566655   -11175.243   -21695.399 
   88000    292.62716   -11119.218    48.846894   -11168.065    -15935.81 
   88200    302.09193   -11113.158    50.426805   -11163.584   -12455.874 
   88400    303.74266   -11112.709    50.702353   -11163.411     -3550.88 
   88600    325.75504   -11106.377    54.376778   -11160.753    28498.379 
   88800    256.32911   -11125.264     42.78783   -11168.052    2517.1755 
   89000    291.78274   -11114.891    48.705939   -11163.597   -11216.371 
   89200    283.21477   -11112.048    47.275729   -11159.324    44200.041 
   89400    340.20923    -11113.63    56.789549   -11170.419    56665.778 
   89600    320.66062   -11113.707    53.526391   -11167.233    22924.128 
   89800    255.47457   -11118.394    42.645185   -11161.039     82088.41 
   90000    322.36307   -11115.437    53.810573   -11169.247   -37608.859 
   90200    299.98992   -11117.313    50.075927   -11167.389   -14477.829 
   90400    312.22378   -11117.059    52.118069   -11169.177   -42911.084 
   90600    324.17769   -11114.554    54.113479   -11168.668   -3809.1417 
   90800    281.71212   -11114.658    47.024898   -11161.683     27442.26 
   91000    248.17406   -11124.906    41.426546   -11166.333   -79974.978 
   91200    335.87107   -11105.578    56.065401   -11161.644    17058.002 
   91400    289.90231   -11117.222    48.392049   -11165.614     8785.565 
   91600    314.52326   -11118.122    52.501909   -11170.624   -41048.671 
   91800    252.33317    -11123.43    42.120807   -11165.551   -15115.743 
   92000    359.87415   -11110.112    60.072123   -11170.184     49626.03 
   92200    306.08926   -11112.899    51.094061   -11163.993   -44561.583 
   92400    260.18766   -11125.157    43.431919   -11168.589   -38409.647 
   92600    272.31734   -11117.024    45.456672   -11162.481   -37904.367 
   92800    285.79487   -11117.037    47.706413   -11164.744    20661.058 
   93000     265.8707   -11119.706    44.380562   -11164.087    21407.937 
   93200    285.76933   -11122.998    47.702149     -11170.7    1780.9965 
   93400     336.8371   -11102.908    56.226655   -11159.134   -1836.1203 
   93600    297.05564   -11119.925    49.586121   -11169.511    2937.3349 
   93800    281.11651   -11122.127    46.925475   -11169.052    33409.935 
   94000    302.51508   -11106.376     50.49744   -11156.874   -2332.4216 
   94200    376.12227   -11093.926    62.784346    -11156.71    -12541.38 
   94400    289.62985   -11117.594    48.346567   -11165.941   -29954.114 
   94600    263.28666   -11117.615    43.949221   -11161.564    65777.316 
   94800    334.83624   -11102.495    55.892661   -11158.388   -5883.1514 
   95000    256.36965   -11122.733    42.794597   -11165.528   -7414.9108 
   95200    292.35054   -11116.699     48.80072     -11165.5   -2019.7903 
   95400     353.3764   -11100.018    58.987483   -11159.005    -24163.31 
   95600    244.76061   -11123.427    40.856753   -11164.284    34843.032 
   95800     308.0926   -11111.905    51.428469   -11163.334    39557.841 
   96000    300.72076    -11117.86    50.197922   -11168.058   -12101.301 
   96200    264.48442    -11122.78    44.149158   -11166.929    4346.3499 
   96400    290.45737    -11109.05    48.484701   -11157.535   -82028.111 
   96600    300.02702   -11115.645    50.082119   -11165.727    26540.723 
   96800    310.18739   -11113.121    51.778142     -11164.9   -40857.505 
   97000    321.38936   -11110.442    53.648035    -11164.09   -8031.1879 
   97200    298.25261   -11125.914    49.785925     -11175.7   -39442.462 
   97400    287.44518   -11114.373    47.981891   -11162.355   -12830.486 
   97600    373.45121   -11091.204    62.338479   -11153.542   -35223.717 
   97800    277.23151   -11112.593     46.27697    -11158.87    23784.205 
   98000     249.7288   -11118.758     41.68607   -11160.444   -93424.131 
   98200    322.21658   -11119.231    53.786119   -11173.018    27184.509 
   98400     361.9327   -11107.022    60.415747   -11167.438    11278.675 
   98600    333.36517   -11114.735    55.647102   -11170.382   -35253.086 
   98800    322.96204   -11120.347    53.910555   -11174.257    84709.223 
   99000    285.82553   -11105.894     47.71153   -11153.605     75301.78 
   99200    293.48101   -11113.811    48.989425   -11162.801   -721.19017 
   99400    316.17718   -11121.458    52.777991   -11174.236    25275.282 
   99600    343.78151    -11108.04    57.385854   -11165.426   -50935.961 
   99800    322.07271   -11091.319    53.762105   -11145.081   -886.47629 
  100000    270.22316   -11111.526    45.107099   -11156.633    22828.533 
  100200    292.41098   -11123.063    48.810808   -11171.873   -56222.847 
  100400    330.74933   -11119.361    55.210452   -11174.571    30110.422 
  100600    341.36314    -11106.07    56.982166   -11163.052    6496.3107 
  100800    300.83157   -11125.652    50.216418   -11175.868   -44185.797 
  101000    251.58433   -11118.872    41.995805   -11160.867    39441.615 
  101200    329.27487   -11107.808    54.964328   -11162.773   -77924.377 
  101400    278.23693   -11127.516      46.4448    -11173.96   -22292.151 
  101600    303.85538   -11121.358    50.721169   -11172.079   -13409.887 
  101800    368.11328   -11105.501    61.447443   -11166.948    17241.897 
  102000    400.14554   -11084.553    66.794439   -11151.348   -21511.116 
  102200    286.98922   -11115.498     47.90578   -11163.403   -51190.565 
  102400     287.1458   -11122.861    47.931916   -11170.793   -32831.354 
  102600    317.82476   -11107.581    53.053013   -11160.634    54778.218 
  102800    266.35108   -11129.228    44.460751   -11173.689    34059.648 
  103000    306.47313   -11119.868    51.158138   -11171.026   -30244.914 
  103200    324.79221   -11110.659    54.216058   -11164.875   -36662.124 
  103400    275.57424   -11130.658     46.00033   -11176.659    2466.0456 
  103600    310.02248   -11124.912    51.750615   -11176.663   -13054.889 
  103800    338.39171   -11109.621    56.486159   -11166.107   -2717.3656 
  104000    272.39916   -11118.887    45.470329   -11164.357    34592.548 
  104200    234.36746   -11132.825    39.121874   -11171.946   -66797.393 
  104400    343.62975   -11109.826    57.360521   -11167.187    25654.591 
  104600    271.85824    -11123.61    45.380036    -11168.99    -44036.86 
  104800    306.77838   -11122.437    51.209093   -11173.646    63239.472 
  105000    303.24489   -11104.431    50.619263    -11155.05    615.79707 
  105200    310.16599   -11120.319     51.77457   -11172.093    7651.3474 
  105400    279.83747   -11122.246    46.711971   -11168.958    45462.209 
  105600    325.63685   -11118.529     54.35705   -11172.886    19166.789 
  105800    342.49171   -11108.563    57.170553   -11165.733   -6689.1928 
  106000    278.46217   -11122.678    46.482399   -11169.161   -23532.777 
  106200    290.65521   -11118.802    48.517726   -11167.319    5761.8274 
  106400    303.33943   -11112.319    50.635044   -11162.954    23666.882 
  106600    278.41629   -11121.281     46.47474   -11167.756    59648.622 
  106800    336.63874   -11105.825    56.193544   -11162.018    32972.342 
  107000    310.57038   -11111.302    51.842073   -11163.144   -38608.528 
  107200    273.93543   -11115.922    45.726771   -11161.649     25787.46 
  107400    341.83222   -11116.821    57.060467   -11173.882   -10338.135 
  107600    298.01537   -11126.278    49.746324   -11176.025   -59372.812 
  107800    324.39839   -11108.629    54.150319    -11162.78   -16905.059 
  108000    303.20568   -11115.008    50.612718   -11165.621   -7022.9117 
  108200    317.08345   -11124.716    52.929271   -11177.645   -3999.3698 
  108400    316.38556   -11117.268    52.812775   -11170.081     20751.08 
  108600    304.42022    -11119.45    50.815456   -11170.265   -22277.874 
  108800    302.63983   -11126.294    50.518264   -11176.812   -294.50892 
  109000    363.03604   -11102.324    60.599923   -11162.924   -59589.846 
  109200    284.28209   -11119.282    47.453891   -11166.736   -7532.0863 
  109400    359.62618    -11107.19     60.03073    -11167.22    5805.7824 
  109600    297.04256   -11125.099    49.583937   -11174.683     56594.27 
  109800    331.59951   -11115.142    55.352368   -11170.494   -25158.404 
  110000    302.58471   -11117.347    50.509063   -11167.856   -8499.7745 
  110200    257.69658   -11130.132    43.016094   -11173.148   -44354.978 
  110400     294.7322    -11116.46     49.19828   -11165.659    82732.632 
  110600    290.14868   -11124.222    48.433173   -11172.655   -67239.802 
  110800    342.63017   -11110.262    57.193665   -11167.455    11068.629 
  111000    276.96731   -11115.508    46.232868   -11161.741    7832.4295 
  111200    221.07284   -11129.506    36.902664   -11166.409    56974.102 
  111400     318.2406   -11114.556    53.122428   -11167.678   -4634.5357 
  111600    325.48061   -11122.482    54.330969   -11176.813   -29033.902 
  111800    282.73193   -11128.503     47.19513   -11175.698    26407.802 
  112000    287.28422   -11108.832    47.955022   -11156.787   -18114.629 
  112200    293.89152   -11118.268    49.057948   -11167.326    -6025.262 
  112400    339.79406   -11106.977    56.720246   -11163.698    93097.738 
  112600    270.76811   -11110.406    45.198065   -11155.604    55560.988 
  112800     234.8444     -11129.7    39.201486   -11168.901   -2787.5198 
  113000     301.7603   -11124.693    50.371448   -11175.064   -21830.239 
  113200    309.05005   -11114.769    51.588292   -11166.357    60220.014 
  113400    309.49231   -11100.919    51.662116   -11152.581     23542.23 
  113600     310.2067       -11121    51.781366   -11172.781     8368.903 
  113800    304.06877   -11116.682     50.75679   -11167.439    50113.317 
  114000    336.26187   -11101.448    56.130635   -11157.578    17891.551 
  114200    277.92662   -11119.556    46.393002   -11165.949   -26647.518 
  114400    291.35268   -11112.571    48.634152   -11161.205    42433.455 
  114600    327.26214    -11103.78    54.628352   -11158.408   -10519.302 
  114800    277.84214   -11124.086    46.378901   -11170.465   -12821.574 
  115000    256.28614   -11127.311    42.780657   -11170.092   -10329.442 
  115200    290.91752   -11112.016    48.561512   -11160.578    60665.782 
  115400    345.38152   -11106.017    57.652936    -11163.67    40995.144 
  115600    332.23512   -11105.753    55.458467   -11161.211     68079.39 
  115800    255.20057   -11123.396    42.599448   -11165.996    -57969.37 
  116000    319.47173   -11116.177    53.327934   -11169.505   -9804.2831 
  116200    312.25845   -11108.055    52.123855   -11160.179    82268.561 
  116400     298.0554   -11115.221    49.753007   -11164.974   -64202.988 
  116600    266.24831   -11124.518    44.443595   -11168.962    1059.2657 
  116800    313.43269   -11105.436    52.319866   -11157.756    7847.6512 
  117000    281.39384   -11118.956    46.971769   -11165.927    25184.046 
  117200     255.3308   -11124.789    42.621186    -11167.41    12120.036 
  117400    294.40972   -11115.658    49.144449   -11164.802    53374.045 
  117600    298.34419   -11113.809    49.801212   -11163.611    31735.714 
  117800    255.10955   -11121.909    42.584254   -11164.493   -16508.238 
  118000    288.76869   -11123.037    48.202819    -11171.24   -899.92401 
  118200    305.43952   -11106.025    50.985603   -11157.011    56447.067 
  118400    224.45166   -11127.669    37.466674   -11165.135   -66476.769 
  118600    272.20436   -11112.177    45.437812   -11157.614   -25862.752 
  118800     298.8713   -11115.314    49.889201   -11165.203   -26008.755 
  119000     296.1349   -11129.767    49.432426     -11179.2    29250.518 
  119200    285.81228   -11115.096    47.709319   -11162.806    63000.009 
  119400    309.18346   -11112.523    51.610561   -11164.134    39832.788 
  119600    267.71491    -11122.38    44.688408   -11167.069    4666.8179 
  119800        300.9   -11101.257    50.227842   -11151.485   -1311.5021 
  120000    259.96541   -11115.933     43.39482   -11159.328     7813.091 
  120200    280.47094   -11121.547    46.817713   -11168.365   -24775.555 
  120400    299.95931   -11116.279    50.070817    -11166.35   -89449.057 
  120600      362.942   -11103.742    60.584225   -11164.326    55208.931 
  120800    257.82179   -11122.554    43.036996   -11165.591   -54343.498 
  121000    294.88069   -11116.355    49.223066   -11165.578    31384.771 
  121200     328.5181   -11106.697    54.838003   -11161.535   -29642.968 
  121400    296.93807   -11123.081    49.566495   -11172.647   -53625.435 
  121600    330.53978   -11111.036    55.175473   -11166.211    25899.508 
  121800    288.48769    -11110.54    48.155912   -11158.695   -39270.628 
  122000    270.23388   -11121.988    45.108889   -11167.097   -20001.629 
  122200    234.49302   -11122.739    39.142832   -11161.882    26169.372 
  122400    315.15659   -11113.612    52.607628    -11166.22    14934.822 
  122600    334.69893   -11098.582     55.86974   -11154.451   -36415.159 
  122800    336.73444   -11108.927    56.209518   -11165.137    106761.02 
  123000     278.9472   -11120.947    46.563363    -11167.51    24587.531 
  123200    260.52407   -11124.699    43.488075   -11168.187   -25594.637 
  123400    296.52045   -11118.816    49.496783   -11168.313   -36911.859 
  123600    275.82215    -11113.82    46.041713   -11159.861    -5.612985 
  123800    345.25331   -11102.503    57.631533   -11160.134   -78948.234 
  124000    305.23766   -11120.453    50.951907   -11171.405   -68999.713 
  124200    298.37376   -11112.978    49.806148   -11162.785   -66581.751 
  124400    354.48438   -11113.572    59.172433   -11172.745    -57554.49 
  124600     240.5486   -11120.324    40.153662   -11160.478   -25060.054 
  124800     326.5005   -11099.114    54.501214   -11153.615   -73890.092 
  125000    352.20014   -11111.951    58.791137   -11170.742    -20645.81 
  125200    286.38668   -11117.244      47.8052    -11165.05    100788.69 
  125400    257.61181    -11124.46    43.001946   -11167.461    20035.822 
  125600    247.12368   -11119.771     41.25121   -11161.022   -53429.103 
  125800    300.11178   -11106.607    50.096269   -11156.704    66682.339 
  126000    272.65462   -11124.696    45.512971   -11170.209    17741.615 
  126200    275.10763   -11122.843     45.92244   -11168.765   -25889.909 
  126400    341.63936   -11117.407    57.028274   -11174.435   -46294.348 
  126600    225.49434   -11125.447    37.640725   -11163.088    15378.103 
  126800    303.89949   -11110.964    50.728533   -11161.692   -64607.599 
  127000    337.29606   -11108.735    56.303267   -11165.039    8951.8755 
  127200    254.87467   -11126.539    42.545046   -11169.084   -29404.214 
  127400    324.24356   -11120.047    54.124473   -11174.171   -57182.249 
  127600    341.22222   -11106.659    56.958642   -11163.617     14120.32 
  127800    293.92055   -11117.519    49.062794   -11166.582     44636.52 
  128000    287.24474   -11114.211    47.948432   -11162.159     32799.37 
  128200    292.85227   -11099.497    48.884472   -11148.381    110782.34 
  128400    340.42285   -11093.474    56.825208   -11150.299   -20758.897 
  128600    290.11809   -11115.022    48.428068    -11163.45    884.45087 
  128800    244.67333    -11122.77    40.842184   -11163.612   -63700.911 
  129000    299.91225     -11105.6    50.062962   -11155.663    26947.718 
  129200    282.96633   -11116.915    47.234258   -11164.149   -22709.638 
  129400    242.27512   -11119.294    40.441863   -11159.735    35015.435 
  129600    361.74958   -11098.675     60.38518    -11159.06   -23954.404 
  129800     276.4961   -11113.473    46.154212   -11159.628   -59563.631 
  130000    268.09755   -11117.444     44.75228   -11162.196    39273.422 
  130200    360.59318   -11103.641    60.192148   -11163.833    10708.422 
  130400    327.74785   -11100.485    54.709429   -11155.195   -76960.085 
  130600    288.46231   -11119.872    48.151676   -11168.023   -3899.0259 
  130800    267.29084   -11125.331    44.617621   -11169.949    44468.619 
  131000    293.96206   -11110.089    49.069723   -11159.159    30978.656 
  131200    250.61735   -11117.066    41.834393     -11158.9   -26029.812 
  131400    265.90375   -11115.885    44.386081   -11160.271   -19068.546 
  131600    271.75726   -11108.283     45.36318   -11153.646     16316.99 
  131800    334.65551   -11121.242    55.862492   -11177.104   -64053.537 
  132000      289.261   -11118.206    48.284998   -11166.491   -35924.512 
  132200    396.01927   -11099.275     66.10566   -11165.381   -481.40414 
  132400    262.88668   -11114.985    43.882455   -11158.868    1366.7338 
  132600    277.48434   -11120.599    46.319174   -11166.918    11023.869 
  132800    385.75288    -11099.02    64.391939   -11163.412     43213.71 
  133000    309.72359   -11117.408    51.700723   -11169.109    4696.8948 
  133200    312.40719   -11115.318    52.148684   -11167.467   -32783.434 
  133400    296.55379   -11102.114    49.502349   -11151.616   -41096.922 
  133600    247.92551   -11124.312    41.385055   -11165.697    43291.816 
  133800    271.61229   -11116.385     45.33898   -11161.724   -2692.7496 
  134000    268.80925   -11110.751    44.871081   -11155.622   -55368.843 
  134200    254.45422   -11115.485    42.474862    -11157.96   -57485.195 
  134400    253.40555   -11135.516    42.299813   -11177.816     4752.153 
  134600    246.08428   -11124.234    41.077708   -11165.312    -18432.18 
  134800    317.87298    -11113.38    53.061063   -11166.441    -15414.45 
  135000    274.96136   -11129.015    45.898025   -11174.913    35722.234 
  135200    303.43517    -11125.22    50.651027   -11175.871    1182.3014 
  135400    298.08759   -11112.529     49.75838   -11162.288   -8493.4904 
  135600    330.96885   -11109.088    55.247096   -11164.335     24354.43 
  135800    262.21141   -11126.968    43.769734   -11170.738    8111.9223 
  136000    343.23242   -11108.628    57.294196   -11165.922    1607.7562 
  136200    324.94534   -11114.641    54.241618   -11168.883     22440.09 
  136400    270.03574   -11122.598    45.075815   -11167.674   -36170.405 
  136600    307.57383   -11110.308    51.341874    -11161.65    -23814.01 
  136800    360.68889   -11101.368    60.208123   -11161.576    -41495.06 
  137000    282.20309   -11115.676    47.106853   -11162.783    115292.42 
  137200    346.15829   -11105.614    57.782598   -11163.397    11853.098 
  137400    317.05288   -11116.344    52.924166   -11169.268    54247.543 
  137600    281.12936   -11124.726    46.927621   -11171.653    10742.685 
  137800    348.75571   -11105.634    58.216173    -11163.85   -16879.438 
  138000    284.51366   -11120.513    47.492546   -11168.005   -4300.8649 
  138200    274.07982   -11123.835    45.750874   -11169.586   -14521.777 
  138400    329.67181   -11107.267    55.030587   -11162.298     -14766.7 
  138600    302.17941   -11118.469    50.441408    -11168.91    51156.924 
  138800    365.15282   -11105.492    60.953267   -11166.445    12492.938 
  139000    368.40421   -11114.265    61.496006   -11175.761    3536.6021 
  139200     257.4975   -11127.166    42.982864   -11170.149     10742.05 
  139400    335.95418    -11110.31    56.079273   -11166.389    10176.139 
  139600    358.90867   -11111.883     59.91096   -11171.794   -44728.671 
  139800    267.05988   -11124.279    44.579067   -11168.858   -54837.116 
  140000    300.94989   -11119.505    50.236169   -11169.741   -1804.3393 
  140200    335.84698   -11115.967    56.061379   -11172.029   -7749.2109 
  140400    271.93035   -11124.494    45.392073   -11169.886    47015.907 
  140600     292.5448   -11102.355    48.833147   -11151.188    72209.461 
  140800    296.58064   -11118.566     49.50683   -11168.073   -48542.127 
  141000    342.62051   -11115.737    57.192052   -11172.929    28870.151 
  141200      334.599   -11097.114    55.853059   -11152.967    15150.815 
  141400    308.41899   -11111.458    51.482951   -11162.941    67685.551 
  141600    290.34271     -11121.7    48.465562   -11170.165   -62156.045 
  141800    326.48073   -11116.033    54.497915   -11170.531    45207.471 
  142000    348.07135   -11104.478    58.101937    -11162.58    35076.886 
  142200    263.63519    -11125.96    44.007399   -11169.967    28275.573 
  142400     295.1866    -11113.02    49.274131   -11162.294    24523.203 
  142600    325.36995    -11108.58    54.312497   -11162.892    16600.713 
  142800    307.88947   -11114.431    51.394562   -11165.826    36210.534 
  143000    303.54304   -11119.524    50.669033   -11170.193    5943.5295 
  143200    231.18536   -11137.588    38.590701   -11176.179   -8881.1028 
  143400    326.33611   -11121.501    54.473774   -11175.975    35764.384 
  143600    321.89898   -11115.175    53.733104   -11168.908    25462.982 
  143800     318.7713   -11104.124    53.211015   -11157.335    21910.717 
  144000    341.99428   -11103.025    57.087519   -11160.112   -57754.514 
  144200     302.6553   -11120.302    50.520846   -11170.823    22455.369 
  144400    310.92893   -11110.727    51.901925   -11162.629    21749.267 
  144600    265.77009   -11110.046    44.363768    -11154.41    29618.034 
  144800     262.5497   -11122.352    43.826204   -11166.179    27562.606 
  145000     326.3018   -11117.561    54.468047   -11172.029   -10008.278 
  145200    347.05842   -11101.113    57.932853   -11159.045   -41617.866 
  145400     326.4025   -11111.227    54.484856   -11165.711    -32122.46 
  145600    278.34019   -11119.258    46.462037    -11165.72    5510.5474 
  145800    331.10335   -11099.581    55.269547    -11154.85    64229.157 
  146000    305.86942   -11108.987    51.057364   -11160.044   -54101.785 
  146200    299.95522   -11121.343    50.070133   -11171.413   -16390.542 
  146400    289.00017     -11126.2    48.241459   -11174.442   -25796.751 
  146600    309.15691   -11109.437    51.606129   -11161.044    20395.463 
  146800    329.96275   -11115.712    55.079151   -11170.792    -38275.62 
  147000    273.96276   -11124.143    45.731333   -11169.875    3130.0089 
  147200    317.36818   -11114.934    52.976798    -11167.91   -11239.323 
  147400    313.17489   -11117.492    52.276832   -11169.769   -74596.993 
  147600    261.91376   -11131.129    43.720049   -11174.849    97158.481 
  147800    339.09743   -11110.846    56.603962    -11167.45    10307.839 
  148000    298.07105   -11118.521    49.755618   -11168.277    25093.317 
  148200    288.86846   -11121.268    48.219473   -11169.487     21044.84 
  148400    357.96672    -11103.37    59.753725   -11163.124   -89385.321 
  148600     307.4392    -11117.37      51.3194   -11168.689    16279.514 
  148800    266.34655   -11123.984    44.459994   -11168.444   -39618.662 
  149000    332.50913   -11117.396    55.504207     -11172.9    28820.236 
  149200    296.56207   -11114.789    49.503731   -11164.293    5078.4794 
  149400    288.13913   -11126.268    48.097728   -11174.366   -37474.968 
  149600    300.67362   -11108.929    50.190053   -11159.119    9268.6607 
  149800    290.10912   -11115.688     48.42657   -11164.115   -6086.9816 
  150000    273.11706   -11114.278    45.590164   -11159.869   -2668.4169 
  150200    297.94061   -11116.127    49.733845   -11165.861    19312.828 
  150400    284.47638   -11120.664    47.486323   -11168.151    2461.0554 
  150600     240.1673   -11133.949    40.090013   -11174.039    567.88859 
  150800    323.88286   -11115.898    54.064263   -11169.963   -47373.028 
  151000    293.92784   -11114.657    49.064012   -11163.721    21120.537 
  151200    253.14869   -11120.603    42.256937    -11162.86   -102571.76 
  151400    322.81859   -11111.332     53.88661   -11165.218   -16363.415 
  151600    309.51309   -11110.386    51.665584   -11162.052   -21802.094 
  151800    254.50365   -11127.371    42.483114   -11169.854   -64260.601 
  152000    333.16304   -11113.178    55.613361   -11168.791    23541.429 
  152200    311.20515   -11119.985    51.948033   -11171.933   -2360.3396 
  152400    268.61305   -11116.591     44.83833   -11161.429   -7354.6487 
  152600    318.66777   -11105.244    53.193733   -11158.437    4722.8503 
  152800    248.05202   -11127.524    41.406173    -11168.93   -4850.5055 
  153000    333.12579   -11112.549    55.607143   -11168.156    9982.4463 
  153200    332.54326   -11116.909    55.509905   -11172.419    27390.017 
  153400    265.68317   -11129.669    44.349259   -11174.018   -52079.557 
  153600    329.58957   -11118.908    55.016859   -11173.925   -16665.234 
  153800    305.21666   -11112.268    50.948402   -11163.217   -4304.2649 
  154000    317.84081   -11101.654    53.055693   -11154.709   -27958.505 
  154200    239.64006   -11118.153    40.002004   -11158.155    6300.2378 
  154400    320.19858   -11109.773    53.449264   -11163.223    41362.213 
  154600     328.6456   -11101.229    54.859286   -11156.089     70326.82 
  154800    273.32737   -11120.502     45.62527   -11166.127    48593.294 
  155000     273.8091   -11121.908    45.705684   -11167.614   -39314.495 
  155200    296.36048   -11107.996    49.470081   -11157.466   -46408.951 
  155400     319.3989   -11110.496    53.315777   -11163.812   -22508.536 
  155600    310.88243   -11119.187    51.894163   -11171.081   -1577.8836 
  155800    328.64167   -11109.792     54.85863    -11164.65    4508.0367 
  156000    321.09346   -11104.132    53.598642   -11157.731   -8826.9398 
  156200    305.02595   -11121.005    50.916567   -11171.922    31155.482 
  156400     276.2254   -11119.019    46.109025   -11165.128   -25095.215 
  156600    345.59109   -11104.753    57.687917   -11162.441    24091.889 
  156800    315.77072   -11118.991    52.710142   -11171.701    68084.844 
  157000    233.96096   -11137.535    39.054019   -11176.589    61802.804 
  157200    304.77064   -11120.529    50.873949   -11171.402   -67987.908 
  157400    286.29018   -11111.342    47.789092   -11159.131   -18848.355 
  157600    274.20605   -11118.879    45.771944   -11164.651    11346.739 
  157800    337.66453   -11123.809    56.364773   -11180.173    -54126.02 
  158000    328.04086   -11109.424     54.75834   -11164.183   -17825.807 
  158200    291.73311   -11111.415    48.697655   -11160.113   -13946.236 
  158400    253.59023   -11127.428    42.330642   -11169.759   -39108.658 
  158600     307.9656   -11118.726    51.407269   -11170.133     58562.21 
  158800    302.55619   -11115.212    50.504302   -11165.716    19225.923 
  159000    304.50691   -11127.192    50.829926   -11178.022   -5424.2322 
  159200    271.32523   -11129.826    45.291063   -11175.117   -10555.148 
  159400    344.21955   -11110.009    57.458973   -11167.468     27288.68 
  159600    318.81007   -11111.512    53.217486    -11164.73    7942.9731 
  159800    262.14266   -11116.987    43.758259   -11160.745     38852.29 
  160000     337.1976   -11104.907    56.286831   -11161.194    5160.4313 
  160200     283.4418   -11122.211    47.313626   -11169.525    11966.055 
  160400    308.76232   -11121.391    51.540262   -11172.931    40286.012 
  160600    341.35767   -11101.688    56.981253    -11158.67   -31711.024 
  160800    311.21222   -11105.227    51.949214   -11157.176    15144.503 
  161000    312.95217   -11116.038    52.239654   -11168.277    17677.983 
  161200    319.39718   -11100.268     53.31549   -11153.584     30768.33 
  161400    341.33396   -11108.933    56.977294    -11165.91   -42100.342 
  161600    303.73818   -11117.425    50.701606   -11168.127   -52937.682 
  161800    317.31163   -11113.885     52.96736   -11166.853   -23993.365 
  162000    319.60973   -11111.554    53.350971   -11164.905   -61155.916 
  162200    277.01874   -11124.769    46.241453    -11171.01   -58076.049 
  162400    313.24749   -11112.746    52.288952   -11165.035    42756.849 
  162600    336.25905   -11113.137    56.130164   -11169.267    21340.621 
  162800    305.44462   -11111.568    50.986455   -11162.554   -66395.063 
  163000    379.87199   -11100.456     63.41027   -11163.866    44851.314 
  163200     303.3651   -11118.163    50.639329   -11168.803   -9979.4993 
  163400    302.83296   -11121.393    50.550502   -11171.943    7633.3221 
  163600    342.94767   -11104.515    57.246664   -11161.761    39994.783 
  163800    289.22621   -11119.954    48.279191   -11168.233    97128.685 
  164000     271.5542   -11123.047    45.329283   -11168.376    26356.555 
  164200    293.75893   -11113.387    49.035816   -11162.423   -66361.633 
  164400    341.33437   -11108.083    56.977364    -11165.06    67416.834 
  164600    322.42053   -11121.088    53.820164   -11174.908   -2823.2518 
  164800    301.33293   -11122.364    50.300109   -11172.664    39073.382 
  165000    270.44903   -11109.417    45.144802   -11154.562    14108.167 
  165200     308.1758   -11114.178    51.442358    -11165.62    14380.165 
  165400    281.36479   -11124.636     46.96692   -11171.603   -3074.3824 
  165600    315.15052   -11108.442    52.606615   -11161.048    91932.901 
  165800    294.70349   -11118.551    49.193487   -11167.745     16035.63 
  166000    296.20289   -11126.217    49.443775   -11175.661   -14134.468 
  166200    333.32564   -11112.391    55.640503   -11168.032    44048.701 
  166400    247.02379   -11130.638    41.234536   -11171.873    15658.859 
  166600    317.94289   -11117.602    53.072732   -11170.675   -16492.775 
  166800    337.66586   -11113.852    56.364996   -11170.217    14875.254 
  167000    303.46258   -11115.855    50.655601    -11166.51    27847.597 
  167200    360.63946    -11097.15    60.199872    -11157.35    23212.406 
  167400    355.57289   -11118.888    59.354134   -11178.242   -20991.164 
  167600    281.66239   -11125.798    47.016597   -11172.814    90263.588 
  167800    341.10082   -11106.989    56.938379   -11163.928   -23278.286 
  168000    276.26079   -11119.756    46.114933   -11165.871   -38388.216 
  168200    267.28225    -11118.68    44.616187   -11163.296   -64230.368 
  168400    287.44104   -11109.552    47.981201   -11157.533     41733.59 
  168600    313.29456   -11114.693    52.296808    -11166.99   -37352.716 
  168800    250.53829   -11132.473    41.821195   -11174.295   -6993.5524 
  169000    285.83256   -11118.546    47.712704   -11166.259    26673.954 
  169200    324.20958   -11115.058    54.118802   -11169.176   -46883.581 
  169400    257.14014    -11128.68    42.923211   -11171.603   -14119.955 
  169600    295.64512   -11110.926    49.350668   -11160.277   -4808.5081 
  169800    314.22693   -11102.354    52.452444   -11154.806    -36547.68 
  170000    293.55165   -11123.063    49.001215   -11172.065   -9389.1813 
  170200    292.97425   -11113.876    48.904833   -11162.781   -20462.907 
  170400    385.73254   -11094.209    64.388545   -11158.598    10088.781 
  170600    257.63187   -11122.689    43.005294   -11165.694   -4500.4346 
  170800    297.31776   -11115.084    49.629875   -11164.714   -40362.363 
  171000    263.65687   -11114.498    44.011018   -11158.509    5124.9246 
  171200    331.97747   -11116.666    55.415459   -11172.081     14033.05 
  171400    328.42534   -11114.626    54.822519   -11169.448   -54900.365 
  171600    305.49123   -11123.844    50.994234   -11174.838    14893.197 
  171800    284.99162   -11126.333     47.57233   -11173.905     10026.51 
  172000    368.20778   -11107.128    61.463218   -11168.591   -35401.816 
  172200    247.25925   -11121.533     41.27384   -11162.807   -34343.936 
  172400    305.62155   -11115.072    51.015988   -11166.088    15443.804 
  172600    313.66213   -11109.887    52.358165   -11162.245   -6240.3595 
  172800     277.9971   -11125.534    46.404767   -11171.939   -55753.225 
  173000    306.38176   -11124.311    51.142887   -11175.454   -34406.579 
  173200    270.88832   -11111.942     45.21813    -11157.16   -28398.448 
  173400    268.61337   -11126.691    44.838384   -11171.529   -24076.596 
  173600    274.80045    -11124.33    45.871165   -11170.201   -57393.637 
  173800     314.2889   -11105.085    52.462789   -11157.548    18272.187 
  174000    317.70966   -11117.365    53.033801   -11170.398    83940.726 
  174200     277.9909   -11122.165    46.403732   -11168.568   -58000.175 
  174400    343.50936   -11107.845    57.340425   -11165.185   -62167.697 
  174600    289.98038   -11119.411    48.405081   -11167.816   -31572.298 
  174800    284.53737   -11114.893    47.496504    -11162.39    68062.111 
  175000    329.92716   -11105.217    55.073211    -11160.29    10570.932 
  175200    285.63254   -11117.203    47.679315   -11164.883    16164.549 
  175400    289.51036   -11108.738    48.326622   -11157.065   -56390.775 
  175600    310.08844   -11103.509    51.761625   -11155.271   -21065.142 
  175800    300.20073   -11117.909    50.111117    -11168.02    29597.829 
  176000    295.16103   -11119.993    49.269861   -11169.263   -51220.748 
  176200    352.41175   -11102.056     58.82646   -11160.883   -62906.326 
  176400    284.26721   -11119.083    47.451407   -11166.534   -31549.885 
  176600    292.89965   -11119.405     48.89238   -11168.298    15933.556 
  176800    290.71838   -11103.374    48.528272   -11151.903    1730.8352 
  177000    329.94092   -11098.447    55.075507   -11153.522   -4263.9258 
  177200    267.21099   -11121.962    44.604291   -11166.566    44387.062 
  177400    288.17902    -11118.71    48.104387   -11166.815   -68187.265 
  177600    317.95407    -11099.27    53.074599   -11152.345    -46138.68 
  177800    333.15253   -11114.138    55.611607   -11169.749    13944.403 
  178000    281.01365   -11116.188    46.908306   -11163.096   -89567.757 
  178200    317.95112   -11104.056    53.074106    -11157.13    72123.228 
  178400    344.67403    -11110.23    57.534838   -11167.765   -44158.468 
  178600    314.36889   -11120.013     52.47614   -11172.489   -7438.4511 
  178800    318.07679   -11103.112    53.095083   -11156.207    3058.5791 
  179000     264.1227   -11122.526    44.088778   -11166.615    76828.067 
  179200    348.58534   -11112.358    58.187735   -11170.546   -37374.412 
  179400     349.3434   -11110.728    58.314274   -11169.042   -42935.426 
[...]
  950000    260.70051   -11109.973    43.517528    -11153.49   -18351.429 
  950200    297.04562   -11097.931    49.584448   -11147.515   -24577.306 
  950400    239.10158   -11113.805    39.912118   -11153.717   -54577.545 
  950600    313.57264   -11096.785    52.343227   -11149.128   -19475.247 
  950800    312.30951   -11097.008    52.132378   -11149.141    13415.056 
  951000    288.44091   -11109.816    48.148103   -11157.964    53853.295 
  951200    318.13718   -11104.542    53.105164   -11157.647     5570.183 
  951400    284.03148   -11096.946    47.412058   -11144.358   -42278.587 
  951600    247.12872   -11115.218    41.252052    -11156.47   -36557.198 
  951800    298.66392   -11108.885    49.854583   -11158.739   -62873.774 
  952000    234.85697   -11118.943    39.203585   -11158.146    4401.8931 
  952200    271.65286    -11113.33    45.345753   -11158.676   -21863.138 
  952400    344.96359    -11098.09    57.583173   -11155.673   -22384.598 
  952600    247.51351   -11108.982    41.316283   -11150.299     90044.75 
  952800    324.07792   -11107.696    54.096825   -11161.792    42586.675 
  953000    268.60135   -11124.453    44.836377    -11169.29   -19582.762 
  953200    309.09851   -11108.302     51.59638   -11159.898    18662.182 
  953400     352.0036   -11105.159    58.758329   -11163.918   -21900.721 
  953600      260.356   -11120.634     43.46002   -11164.094    -35971.81 
  953800    319.79961   -11107.329    53.382666   -11160.711   -41321.848 
  954000      277.018   -11109.043     46.24133   -11155.284   -53701.741 
  954200    263.69244    -11118.35    44.016956   -11162.367   -8463.3403 
  954400    320.15261   -11110.459    53.441591   -11163.901    7052.1422 
  954600    321.66959   -11103.435    53.694813    -11157.13   -36641.219 
  954800    255.80932   -11121.977    42.701063   -11164.678    42520.909 
  955000    293.40606   -11109.292    48.976912   -11158.269   -40257.065 
  955200    296.36714   -11111.289    49.471192    -11160.76   -26136.225 
  955400    279.32046   -11109.444    46.625669   -11156.069   -1731.5283 
  955600    306.25406   -11100.435     51.12157   -11151.557    19633.669 
  955800    268.30753   -11114.054    44.787332   -11158.842   -19762.053 
  956000    281.23623   -11107.111    46.945461   -11154.056   -29894.513 
  956200    311.94524   -11108.672    52.071572   -11160.743   -34027.444 
  956400    311.14181    -11108.13     51.93746   -11160.068   -7388.4758 
  956600    276.97045    -11108.88    46.233393   -11155.113    33920.629 
  956800    328.96152   -11102.055    54.912021   -11156.967    38364.872 
  957000    266.93877   -11113.251    44.558852    -11157.81    6813.6072 
  957200    355.74331   -11105.871     59.38258   -11165.254    31250.657 
  957400    303.51905   -11099.574    50.665027   -11150.239   -12705.329 
  957600     309.3258   -11117.027    51.634322   -11168.662    4003.5528 
  957800    259.16167   -11129.792    43.260656   -11173.053    37096.873 
  958000    271.87285   -11112.764    45.382473   -11158.146   -59415.942 
  958200     355.1006   -11095.173    59.275296   -11154.448   -17420.908 
  958400    294.00468   -11112.791    49.076837   -11161.868    98449.227 
  958600    310.96248   -11110.474    51.907524   -11162.382    -102549.9 
  958800    353.36404   -11096.799    58.985421   -11155.785   -47940.922 
  959000    319.48245   -11106.072    53.329724   -11159.402    18066.709 
  959200    297.68076   -11103.915    49.690469   -11153.605   -20039.502 
  959400    320.15442   -11096.355    53.441893   -11149.797    33845.372 
  959600    282.68395   -11114.269    47.187122   -11161.456   -15879.295 
  959800    338.72688   -11098.972    56.542107   -11155.515    -23121.06 
  960000    295.87356   -11106.054    49.388802   -11155.443    35355.067 
  960200    333.13075   -11107.447     55.60797   -11163.055    3190.2995 
  960400    305.73834   -11107.913    51.035483   -11158.949    2783.5691 
  960600    322.32665   -11109.222    53.804493   -11163.027    18675.044 
  960800    268.86455   -11107.496    44.880313   -11152.377    72060.083 
  961000    343.64897   -11093.234    57.363729   -11150.597    66014.051 
  961200    288.61794   -11111.128    48.177655   -11159.306   -21039.705 
  961400    295.25793    -11106.48    49.286037   -11155.766   -28967.261 
  961600    321.52589   -11092.622    53.670826   -11146.293   -60339.694 
  961800    298.17425   -11113.712    49.772845   -11163.485   -40141.931 
  962000    295.87312   -11107.815    49.388728   -11157.204     -15653.3 
  962200    367.39223   -11093.829    61.327082   -11155.156    29147.489 
  962400    292.10141   -11106.731    48.759135    -11155.49    11664.359 
  962600    253.61107   -11110.481    42.334121   -11152.815   -31347.438 
  962800    267.10268   -11123.941    44.586212   -11168.528    39186.918 
  963000    298.82298   -11106.278    49.881134   -11156.159   -51086.605 
  963200    323.08642   -11105.938    53.931319   -11159.869     37880.77 
  963400    285.07675   -11116.652    47.586541   -11164.238   -27919.219 
  963600    292.24714     -11112.8     48.78346   -11161.583   -53611.836 
  963800    344.63872   -11099.143    57.528943   -11156.672    83197.475 
  964000    290.17293   -11113.866    48.437222   -11162.303   -13504.161 
  964200    304.02654   -11107.039    50.749741   -11157.789    89539.119 
  964400    303.65306   -11107.773    50.687398   -11158.461    42820.877 
  964600    247.77756   -11110.862    41.360359   -11152.223   -34306.796 
  964800    291.62123   -11109.581    48.678979    -11158.26    36294.045 
  965000    324.88196   -11097.007    54.231039   -11151.238   -11979.448 
  965200    296.93726    -11113.72    49.566359   -11163.287    47135.977 
  965400    295.49997   -11109.539    49.326439   -11158.865   -55488.701 
  965600    369.15301   -11091.328       61.621   -11152.949    12684.128 
  965800    244.88835     -11106.8    40.878077   -11147.678   -18584.106 
  966000    288.46019   -11117.361    48.151321   -11165.513   -54023.866 
  966200    328.14722   -11101.102    54.776094   -11155.878    -621.1546 
  966400    367.30256   -11102.483    61.312113   -11163.795   -64747.718 
  966600    286.73492   -11118.231     47.86333   -11166.094     19132.33 
  966800     284.3596   -11107.931     47.46683   -11155.398   -27501.995 
  967000    366.26933   -11100.707    61.139641   -11161.846   -11470.136 
  967200    283.30986   -11120.031    47.291601   -11167.323   -18337.473 
  967400    313.26045   -11103.978    52.291114   -11156.269   -48912.565 
  967600    311.54421   -11106.335     52.00463    -11158.34    15676.996 
  967800    293.88853   -11121.832     49.05745   -11170.889   -40460.753 
  968000    362.09425    -11105.76    60.442714   -11166.203   -6138.7543 
  968200    314.12453    -11105.72    52.435351   -11158.155   -35825.917 
  968400     282.1393   -11124.381    47.096205   -11171.477   -31014.487 
  968600      299.853   -11107.652    50.053071   -11157.705   -12793.155 
  968800    263.88947   -11108.174    44.049845   -11152.224   -99682.347 
  969000    257.17856   -11120.032    42.929625   -11162.961    -24265.57 
  969200     271.2712   -11116.081    45.282043   -11161.363   -32754.408 
  969400    380.26224   -11102.922    63.475412   -11166.397   -9635.8096 
  969600    288.29354   -11120.532    48.123503   -11168.655    -43626.73 
  969800    346.09829   -11097.158    57.772583    -11154.93   -41943.937 
  970000    312.16965   -11105.821    52.109032    -11157.93   -34622.776 
  970200    256.10709   -11117.948    42.750768   -11160.699     36129.41 
  970400    292.25993   -11101.523    48.785595   -11150.309   -23234.368 
  970600    273.86359   -11108.673    45.714779   -11154.388   -23320.002 
  970800     318.0033    -11107.48    53.082816   -11160.562   -15031.665 
  971000    312.13601   -11094.955    52.103417   -11147.059    -3570.391 
  971200    273.80379   -11114.751    45.704797   -11160.456     44763.97 
  971400    260.17184   -11111.208    43.429278   -11154.637    23117.264 
  971600    343.50703   -11085.987    57.340036   -11143.327   -66699.631 
  971800    310.41314   -11100.614    51.815826    -11152.43    -34343.39 
  972000    303.85276   -11110.939    50.720732    -11161.66   -24629.931 
  972200    259.94766   -11117.839    43.391858   -11161.231   -44409.002 
  972400    301.89986   -11101.528    50.394744   -11151.922    -23293.23 
  972600    304.51682   -11111.402    50.831581   -11162.233   -26854.643 
  972800    227.62402   -11125.461    37.996222   -11163.457   -65264.145 
  973000    295.59401   -11111.892    49.342138   -11161.235   -37585.636 
  973200    335.43888   -11101.557    55.993256    -11157.55    38452.762 
  973400     299.0558   -11109.922    49.919998   -11159.842   -9458.6054 
  973600    286.10101    -11114.37    47.757514   -11162.127   -9280.2734 
  973800     314.8715   -11105.398     52.56004   -11157.958    38165.395 
  974000    347.61954    -11091.33    58.026518   -11149.357   -27611.256 
  974200    316.30405   -11110.993    52.799169   -11163.792   -40011.676 
  974400    311.81775   -11104.695    52.050291   -11156.745    49474.682 
  974600    325.30426   -11091.223    54.301532   -11145.524    16854.498 
  974800    352.54014   -11110.249     58.84789   -11169.097    32641.265 
  975000    287.84086   -11104.625     48.04794   -11152.673    47868.348 
  975200    299.61525   -11113.442    50.013384   -11163.455    32657.135 
  975400    235.98399   -11124.547    39.391713   -11163.939    57897.338 
  975600     341.5044   -11104.963    57.005746   -11161.969   -11787.726 
  975800    266.50155   -11111.559    44.485869   -11156.045   -58042.312 
  976000    259.73821   -11114.947    43.356895   -11158.304   -8923.5033 
  976200    356.37076   -11097.971    59.487318   -11157.459   -37882.812 
  976400    245.29135    -11115.58    40.945348   -11156.526   -48096.704 
  976600    313.44607   -11108.775      52.3221   -11161.097    14862.693 
  976800    337.72631   -11102.644    56.375087   -11159.019   -20789.048 
  977000    270.12761   -11122.877     45.09115   -11167.968   -24394.837 
  977200    285.37351   -11112.987    47.636077   -11160.623    38628.439 
  977400    342.21236    -11099.54    57.123922   -11156.664    12636.282 
  977600    282.08732   -11113.138    47.087528   -11160.226    11826.971 
  977800    277.34478   -11110.367    46.295878   -11156.663    16715.193 
  978000    294.45644   -11105.238    49.152248    -11154.39    43003.803 
  978200    298.05619   -11113.952    49.753138   -11163.705    27075.287 
  978400    272.83151     -11108.7    45.542498   -11154.243   -2641.5012 
  978600    288.54834    -11109.18    48.166036   -11157.346   -2703.3262 
  978800    410.34763   -11095.563    68.497428    -11164.06   -65330.102 
  979000    288.53973   -11112.881    48.164599   -11161.046    -26847.74 
  979200    234.33525   -11109.495    39.116497   -11148.611    27634.853 
  979400    395.42864   -11090.281    66.007069   -11156.288    20020.418 
  979600    338.04503   -11095.508    56.428288   -11151.937   -992.82433 
  979800    290.00824   -11110.691    48.409731   -11159.101   -1697.4685 
  980000    326.22036   -11110.141    54.454452   -11164.596   -68251.744 
  980200    324.78407   -11095.794    54.214699   -11150.009   -23325.982 
  980400    270.06682   -11116.955    45.081001   -11162.036   -71780.605 
  980600    253.87933   -11107.845    42.378899   -11150.223   -50053.167 
  980800    377.27755   -11101.042    62.977192   -11164.019    41700.569 
  981000    344.70569   -11102.673    57.540122   -11160.213   -34628.219 
  981200    289.26176   -11118.767    48.285124   -11167.053    46466.751 
  981400     329.2319   -11106.767    54.957154   -11161.724   -30739.776 
  981600    281.99935   -11101.715    47.072845   -11148.788    5701.1955 
  981800    255.68898    -11122.39    42.680976   -11165.071    3444.7074 
  982000    355.11936   -11106.512    59.278429    -11165.79    -42591.19 
  982200    291.98553   -11106.312    48.739791   -11155.052    3791.3439 
  982400     242.5157   -11119.729    40.482022   -11160.211    97570.058 
  982600    316.97056   -11107.677    52.910425   -11160.588    24891.352 
  982800    324.16954   -11106.465    54.112117   -11160.577    2645.1416 
  983000    283.10579   -11116.942    47.257537     -11164.2    17067.984 
  983200    324.21785   -11106.686    54.120183   -11160.806   -36337.882 
  983400     336.9642   -11100.171    56.247872   -11156.419   -50934.139 
  983600     245.9158   -11117.608    41.049584   -11158.658    16058.307 
  983800    271.75547   -11109.302    45.362881   -11154.665   -31834.047 
  984000    343.02518   -11099.697    57.259603   -11156.956   -3123.1835 
  984200    212.40218   -11120.529    35.455311   -11155.984   -22400.284 
  984400    306.55179    -11109.72    51.171269   -11160.891     13771.63 
  984600    355.76918   -11103.325      59.3869   -11162.711    21796.188 
  984800    281.50077   -11115.395    46.989618   -11162.385    14339.103 
  985000    307.10463   -11105.997    51.263552   -11157.261    5561.6805 
  985200    299.36793   -11108.923      49.9721   -11158.895   -5472.2913 
  985400    303.37025   -11117.862    50.640189   -11168.502    3239.5329 
  985600    328.74466   -11102.449    54.875822   -11157.324   -40857.308 
  985800    235.59861   -11105.379    39.327384   -11144.706   -83958.413 
  986000    292.07357   -11105.596    48.754486    -11154.35   -59567.018 
  986200    297.06855   -11113.887    49.588276   -11163.475    28556.013 
  986400    290.00515   -11103.383    48.409216   -11151.792     125001.7 
  986600    315.87521   -11099.056    52.727584   -11151.784   -72258.741 
  986800    271.12071   -11110.578    45.256923   -11155.835   -62315.674 
  987000    255.33633    -11109.47    42.622109   -11152.092    6996.5474 
  987200    316.01004   -11110.435     52.75009   -11163.185   -4491.7925 
  987400    238.63079   -11117.846    39.833531   -11157.679   -20784.511 
  987600    366.43112   -11099.452    61.166648   -11160.619    48150.592 
  987800     292.7749   -11113.818    48.871556   -11162.689     50443.66 
  988000    267.10059   -11112.338    44.585862   -11156.924    52825.401 
  988200    373.21388   -11095.145    62.298863   -11157.444   -37030.681 
  988400    276.54295   -11112.729    46.162033   -11158.891   -1703.8291 
  988600    292.57831   -11106.878    48.838741   -11155.717    30853.651 
  988800    287.25187   -11095.275    47.949623   -11143.225   -27137.803 
  989000    264.73286   -11114.288    44.190628   -11158.479   -27407.669 
  989200    318.31774   -11106.473    53.135303   -11159.609   -3381.4082 
  989400    337.66591   -11095.785    56.365004    -11152.15    40607.545 
  989600    234.79087   -11114.303     39.19255   -11153.495   -20350.379 
  989800     336.7368   -11105.942    56.209912   -11162.152   -37686.411 
  990000    372.59309   -11090.695    62.195237    -11152.89   -763.89822 
  990200    264.49644   -11112.181    44.151165   -11156.332   -56540.095 
  990400     281.5098   -11105.934    46.991126   -11152.925   -51350.375 
  990600    358.89152   -11096.207    59.908097   -11156.115    26017.252 
  990800    295.01542   -11115.017    49.245557   -11164.262    -66808.35 
  991000    310.14706   -11101.761     51.77141   -11153.533    71978.429 
  991200    306.85231   -11107.126    51.221432   -11158.347   -22623.056 
  991400    306.91649   -11115.226    51.232146   -11166.459    -52715.22 
  991600    296.85673   -11099.053    49.552918   -11148.606    42135.421 
  991800    319.81467   -11107.652    53.385179   -11161.037     98548.09 
  992000    270.45647   -11109.254    45.146045     -11154.4   -72088.127 
  992200     319.0362   -11101.074    53.255234    -11154.33    1712.4193 
  992400    349.39184   -11095.386     58.32236   -11153.708    16891.334 
  992600    274.55759   -11113.484    45.830625   -11159.314   -40577.398 
  992800    317.01031   -11100.741     52.91706   -11153.658    1577.5008 
  993000    292.16362   -11103.204    48.769517   -11151.974   -36818.517 
  993200    250.36686   -11114.968    41.792578    -11156.76    34793.143 
  993400    332.96019   -11101.645    55.579501   -11157.225    23718.387 
  993600    257.45474   -11112.576    42.975726   -11155.551    12438.584 
  993800    235.87495   -11122.093    39.373512   -11161.466    7121.8512 
  994000     294.5878   -11100.137    49.174175   -11149.311    34295.052 
  994200    319.54627   -11108.935    53.340377   -11162.275   -26971.966 
  994400    297.82704       -11114    49.714887   -11163.715   -10418.032 
  994600    348.63281   -11091.692    58.195659   -11149.888    16977.334 
  994800    303.77825   -11110.303    50.708294   -11161.011    23046.749 
  995000    286.46159    -11112.77    47.817705   -11160.588   -49909.305 
  995200    374.67526   -11088.273    62.542803   -11150.816   -12604.879 
  995400    293.70967   -11106.714    49.027593   -11155.742    -26383.49 
  995600     281.5871   -11113.941    47.004028   -11160.945     31095.18 
  995800    253.40935   -11105.141    42.300447   -11147.442     4950.565 
  996000    331.22748   -11100.476    55.290267   -11155.766    23685.064 
  996200    279.67196   -11113.732    46.684344   -11160.416   -22989.733 
  996400     297.3814   -11103.085    49.640498   -11152.725    4736.5044 
  996600    365.84705   -11093.058    61.069152   -11154.127   -5934.2705 
  996800    266.29986   -11114.064    44.452201   -11158.516   -24383.364 
  997000    287.05816   -11110.666    47.917287   -11158.584    2505.0143 
  997200    330.38376   -11099.518     55.14943   -11154.667    16216.666 
  997400    282.91368   -11120.956    47.225468   -11168.181    54464.076 
  997600    305.80772   -11105.056    51.047064   -11156.103   -75416.533 
  997800     299.7123   -11104.348    50.029584   -11154.377   -16028.246 
  998000    261.69533   -11117.209    43.683588   -11160.893     18637.93 
  998200    328.95016   -11092.413    54.910125   -11147.323    5607.0895 
  998400    237.49102   -11112.424    39.643274   -11152.067   -77652.159 
  998600     267.0867    -11108.07    44.583544   -11152.654   -11705.263 
  998800    317.41118   -11098.912    52.983977   -11151.896    -76829.77 
  999000    318.81089   -11104.966    53.217623   -11158.184    41147.465 
  999200    304.87453   -11111.224    50.891292   -11162.115   -10107.522 
  999400    277.84674   -11122.845    46.379668   -11169.225   -10001.704 
  999600    344.43016     -11103.9     57.49413   -11161.394    40665.247 
  999800    259.45004   -11106.948    43.308791   -11150.257    8885.2005 
 1000000    239.91553   -11123.832    40.047987    -11163.88    19351.445 
Loop time of 5395.29 on 8 procs for 1000000 steps with 57 atoms

Performance: 4.003 ns/day, 5.995 hours/ns, 185.347 timesteps/s
99.4% CPU use with 8 MPI tasks x no OpenMP threads

MPI task timing breakdown:
Section |  min time  |  avg time  |  max time  |%varavg| %total
---------------------------------------------------------------
Pair    | 4145.8     | 4445.2     | 4614.5     | 252.4 | 82.39
Neigh   | 0.2129     | 0.22557    | 0.24296    |   2.0 |  0.00
Comm    | 120.68     | 289.98     | 589.5      | 988.6 |  5.37
Output  | 0.12284    | 0.14175    | 0.26639    |  12.5 |  0.00
Modify  | 657.12     | 657.21     | 657.34     |   0.3 | 12.18
Other   |            | 2.506      |            |       |  0.05

Nlocal:    7.125 ave 11 max 3 min
Histogram: 1 1 1 1 0 0 1 0 2 1
Nghost:    702.5 ave 745 max 661 min
Histogram: 2 0 0 0 2 1 1 1 0 1
Neighs:    1104.88 ave 1663 max 479 min
Histogram: 1 1 1 1 0 0 1 0 1 2

Total # of neighbors = 8839
Ave neighs/atom = 155.07
Neighbor list builds = 233
Dangerous builds = 0

Please see the log.cite file for references relevant to this simulation

Total wall time: 1:30:05
