ITEM: TIMESTEP
0
ITEM: NUMBER OF ATOMS
49
ITEM: BOX BOUNDS pp pp pp
0.0000000000000000e+00 1.1000000000000000e+01
0.0000000000000000e+00 1.1002000000000001e+01
0.0000000000000000e+00 1.1000000000000000e+01
ITEM: ATOMS id type x y z 
10 1 4.603 4.603 4.603 
11 1 3.085 3.085 3.085 
12 1 3.796 3.796 3.796 
46 1 0.726 0.725 0.725 
47 1 2.26 2.259 2.26 
48 1 1.551 1.55 1.55 
19 1 4.546 4.545 6.226 
20 1 3.013 3.013 7.764 
21 1 3.721 3.721 7.053 
31 1 0.668 0.667 10.103 
32 1 2.187 2.187 8.589 
33 1 1.476 1.475 9.298 
16 1 4.546 6.225 4.546 
17 1 3.013 7.765 3.013 
18 1 3.721 7.053 3.722 
25 1 0.668 10.103 0.668 
26 1 2.188 8.589 2.188 
27 1 1.476 9.298 1.476 
4 1 4.608 6.169 6.169 
5 1 3.086 7.684 7.684 
6 1 3.799 6.974 6.974 
37 1 0.729 10.046 10.046 
38 1 2.259 8.509 8.508 
39 1 1.552 9.219 9.219 
13 1 6.225 4.546 4.546 
14 1 7.764 3.013 3.013 
15 1 7.053 3.721 3.722 
28 1 10.102 0.667 0.668 
29 1 8.589 2.187 2.188 
30 1 9.298 1.475 1.476 
1 1 6.168 4.608 6.169 
2 1 7.684 3.086 7.684 
3 1 6.974 3.799 6.974 
40 1 10.045 0.728 10.046 
41 1 8.508 2.259 8.508 
42 1 9.218 1.551 9.218 
49 2 6.318 4.346 8.027 
7 1 6.169 6.169 4.608 
8 1 7.684 7.684 3.086 
9 1 6.974 6.974 3.799 
43 1 10.046 10.047 0.729 
44 1 8.508 8.509 2.259 
45 1 9.219 9.219 1.552 
22 1 6.229 6.229 6.229 
23 1 7.764 7.765 7.765 
24 1 7.055 7.056 7.055 
34 1 10.108 10.108 10.107 
35 1 8.59 8.59 8.59 
36 1 9.301 9.301 9.3 
ITEM: TIMESTEP
10
ITEM: NUMBER OF ATOMS
49
ITEM: BOX BOUNDS pp pp pp
0.0000000000000000e+00 1.1000000000000000e+01
0.0000000000000000e+00 1.1002000000000001e+01
0.0000000000000000e+00 1.1000000000000000e+01
ITEM: ATOMS id type x y z 
10 1 4.56843 4.60251 4.58809 
11 1 3.08217 3.07586 3.0786 
12 1 3.78097 3.79419 3.78844 
46 1 0.734404 0.732734 0.732891 
47 1 2.27147 2.27048 2.27124 
48 1 1.56434 1.56306 1.56343 
19 1 4.54502 4.53098 6.23718 
20 1 2.99223 2.99568 7.78292 
21 1 3.70371 3.69734 7.074 
31 1 0.683223 0.672109 10.0976 
32 1 2.18723 2.18855 8.58744 
33 1 1.48063 1.47713 9.29593 
16 1 4.53307 6.23873 4.53434 
17 1 3.00171 7.77581 3.0018 
18 1 3.70691 7.06786 3.70784 
25 1 0.674924 10.096 0.675197 
26 1 2.19203 8.58481 2.1919 
27 1 1.48294 9.29139 1.48322 
4 1 4.59099 6.18494 6.17258 
5 1 3.08219 7.6885 7.69179 
6 1 3.78814 6.98361 6.97671 
37 1 0.736646 10.0387 10.0381 
38 1 2.26984 8.49808 8.49743 
39 1 1.56492 9.20634 9.20603 
13 1 6.25287 4.52008 4.54193 
14 1 7.78947 2.98711 2.98484 
15 1 7.08611 3.68855 3.69419 
28 1 10.0976 0.671501 0.682701 
29 1 8.59076 2.18564 2.18454 
30 1 9.29915 1.47326 1.47817 
1 1 6.12853 4.6493 6.07922 
2 1 7.68669 3.07701 7.76457 
3 1 6.92561 3.84844 6.92915 
40 1 10.0287 0.743716 10.0316 
41 1 8.5009 2.26768 8.48418 
42 1 9.21731 1.55336 9.21003 
49 2 6.37429 4.2925 8.11679 
7 1 6.16912 6.20291 4.59259 
8 1 7.69339 7.68725 3.07933 
9 1 6.97603 6.98921 3.79092 
43 1 10.0381 10.0382 0.736745 
44 1 8.49764 8.49818 2.26964 
45 1 9.20607 9.20641 1.5648 
22 1 6.24512 6.22559 6.24396 
23 1 7.78126 7.78591 7.78267 
24 1 7.07812 7.07197 7.07769 
34 1 10.1022 10.0924 10.1015 
35 1 8.58825 8.59001 8.58791 
36 1 9.29867 9.29547 9.29853 
ITEM: TIMESTEP
17
ITEM: NUMBER OF ATOMS
49
ITEM: BOX BOUNDS pp pp pp
0.0000000000000000e+00 1.1000000000000000e+01
0.0000000000000000e+00 1.1002000000000001e+01
0.0000000000000000e+00 1.1000000000000000e+01
ITEM: ATOMS id type x y z 
10 1 4.57218 4.60617 4.58593 
11 1 3.08232 3.077 3.08082 
12 1 3.77999 3.79642 3.78637 
46 1 0.742093 0.735706 0.736586 
47 1 2.27241 2.27227 2.27164 
48 1 1.56634 1.56118 1.56458 
19 1 4.52846 4.53514 6.22601 
20 1 2.99474 2.99399 7.78201 
21 1 3.69989 3.69838 7.07753 
31 1 0.677261 0.667613 10.1017 
32 1 2.17973 2.18039 8.59575 
33 1 1.47844 1.4754 9.29733 
16 1 4.53297 6.241 4.5304 
17 1 2.99887 7.77879 2.99879 
18 1 3.69941 7.07539 3.7008 
25 1 0.675233 10.0945 0.675603 
26 1 2.18578 8.58955 2.18617 
27 1 1.47993 9.297 1.47935 
4 1 4.58591 6.18766 6.16881 
5 1 3.07922 7.68912 7.687 
6 1 3.79283 6.98357 6.98535 
37 1 0.740478 10.0348 10.0348 
38 1 2.27129 8.49672 8.4961 
39 1 1.56536 9.20599 9.20622 
13 1 6.24061 4.53353 4.51877 
14 1 7.78399 2.9918 2.98898 
15 1 7.09242 3.68329 3.69402 
28 1 10.1069 0.662787 0.672703 
29 1 8.60045 2.17639 2.17508 
30 1 9.30431 1.46771 1.47209 
1 1 6.10884 4.66649 6.07354 
2 1 7.60683 3.14525 7.88656 
3 1 6.92443 3.85049 6.88576 
40 1 10.0295 0.739637 10.0316 
41 1 8.51175 2.25659 8.46623 
42 1 9.22322 1.55455 9.19422 
49 2 6.48165 4.19537 8.13494 
7 1 6.16534 6.19983 4.59068 
8 1 7.69175 7.68721 3.08137 
9 1 6.97486 6.99048 3.78887 
43 1 10.0354 10.0307 0.740137 
44 1 8.49721 8.49852 2.27018 
45 1 9.20769 9.20402 1.56438 
22 1 6.23939 6.24024 6.23434 
23 1 7.78026 7.78296 7.78096 
24 1 7.08017 7.07296 7.081 
34 1 10.1065 10.098 10.1062 
35 1 8.5959 8.59736 8.59586 
36 1 9.29954 9.29713 9.29892 
ITEM: TIMESTEP
20
ITEM: NUMBER OF ATOMS
49
ITEM: BOX BOUNDS pp pp pp
0.0000000000000000e+00 1.1000000000000000e+01
0.0000000000000000e+00 1.1002000000000001e+01
0.0000000000000000e+00 1.1000000000000000e+01
ITEM: ATOMS id type x y z 
10 1 4.57165 4.60658 4.58455 
11 1 3.08134 3.07755 3.08044 
12 1 3.78183 3.79574 3.78719 
46 1 0.742224 0.735162 0.736587 
47 1 2.27227 2.27161 2.27172 
48 1 1.56671 1.5623 1.56448 
19 1 4.52854 4.53504 6.22727 
20 1 2.99388 2.993 7.78337 
21 1 3.70047 3.69905 7.07625 
31 1 0.675932 0.667489 10.1017 
32 1 2.18193 2.18253 8.59365 
33 1 1.47582 1.47282 9.29977 
16 1 4.53158 6.24222 4.5298 
17 1 2.99605 7.78132 2.99656 
18 1 3.70238 7.07291 3.7027 
25 1 0.676374 10.0955 0.675387 
26 1 2.18675 8.58994 2.18691 
27 1 1.47813 9.29629 1.47793 
4 1 4.58599 6.18817 6.16961 
5 1 3.07935 7.68951 7.68837 
6 1 3.79255 6.98297 6.9828 
37 1 0.740549 10.0348 10.0347 
38 1 2.27056 8.49729 8.49673 
39 1 1.56595 9.20563 9.20576 
13 1 6.24075 4.53345 4.51911 
14 1 7.78901 2.98683 2.98443 
15 1 7.08631 3.68937 3.69947 
28 1 10.1069 0.663224 0.671642 
29 1 8.59963 2.17659 2.17624 
30 1 9.30606 1.46709 1.46959 
1 1 6.10969 4.66565 6.07298 
2 1 7.60606 3.14556 7.89206 
3 1 6.9279 3.84775 6.87581 
40 1 10.0311 0.739607 10.0318 
41 1 8.51128 2.25872 8.46591 
42 1 9.22125 1.55369 9.19252 
49 2 6.48191 4.19469 8.14371 
7 1 6.16508 6.20048 4.58968 
8 1 7.69156 7.68852 3.0809 
9 1 6.97515 6.98827 3.78959 
43 1 10.0357 10.0301 0.74022 
44 1 8.49699 8.49756 2.27075 
45 1 9.20656 9.20411 1.565 
22 1 6.23945 6.24014 6.23523 
23 1 7.78207 7.78439 7.78286 
24 1 7.07829 7.07145 7.07889 
34 1 10.1066 10.0996 10.1048 
35 1 8.59359 8.59543 8.59322 
36 1 9.30227 9.29922 9.30229 
ITEM: TIMESTEP
30
ITEM: NUMBER OF ATOMS
49
ITEM: BOX BOUNDS pp pp pp
0.0000000000000000e+00 1.1000000000000000e+01
0.0000000000000000e+00 1.1002000000000001e+01
0.0000000000000000e+00 1.1000000000000000e+01
ITEM: ATOMS id type x y z 
10 1 4.57388 4.60942 4.58549 
11 1 3.08235 3.07912 3.08176 
12 1 3.78233 3.79825 3.78814 
46 1 0.742435 0.733805 0.736718 
47 1 2.27284 2.27149 2.27252 
48 1 1.56768 1.56302 1.56431 
19 1 4.53567 4.53739 6.23124 
20 1 2.99766 2.99502 7.78178 
21 1 3.70065 3.70095 7.07319 
31 1 0.668948 0.668158 10.1009 
32 1 2.18417 2.18229 8.59409 
33 1 1.47286 1.47387 9.29811 
16 1 4.52853 6.24521 4.52887 
17 1 2.99527 7.78189 2.99591 
18 1 3.70231 7.07342 3.70248 
25 1 0.674776 10.0975 0.674114 
26 1 2.18638 8.59112 2.1871 
27 1 1.47745 9.2954 1.47616 
4 1 4.58976 6.18556 6.1696 
5 1 3.08309 7.68801 7.68953 
6 1 3.78918 6.98242 6.97601 
37 1 0.741058 10.0342 10.0349 
38 1 2.27082 8.49719 8.49705 
39 1 1.56575 9.2055 9.20528 
13 1 6.23971 4.53458 4.52408 
14 1 7.78939 2.98668 2.9888 
15 1 7.08369 3.69185 3.69531 
28 1 10.1062 0.663281 0.664165 
29 1 8.60039 2.17558 2.17741 
30 1 9.30509 1.46815 1.46623 
1 1 6.12284 4.65054 6.08313 
2 1 7.5824 3.16752 7.90787 
3 1 6.93993 3.83711 6.85886 
40 1 10.0335 0.738121 10.0282 
41 1 8.50379 2.26639 8.46597 
42 1 9.21503 1.55867 9.18174 
49 2 6.50159 4.17555 8.16492 
7 1 6.16351 6.19784 4.59017 
8 1 7.69121 7.68697 3.08166 
9 1 6.97146 6.98987 3.79051 
43 1 10.0368 10.0305 0.739162 
44 1 8.49689 8.49779 2.27099 
45 1 9.20746 9.20306 1.56509 
22 1 6.23741 6.23334 6.23817 
23 1 7.78066 7.77921 7.78118 
24 1 7.07527 7.07266 7.07586 
34 1 10.1058 10.1069 10.1033 
35 1 8.59385 8.59389 8.59238 
36 1 9.30029 9.30077 9.30261 
ITEM: TIMESTEP
40
ITEM: NUMBER OF ATOMS
49
ITEM: BOX BOUNDS pp pp pp
0.0000000000000000e+00 1.1000000000000000e+01
0.0000000000000000e+00 1.1002000000000001e+01
0.0000000000000000e+00 1.1000000000000000e+01
ITEM: ATOMS id type x y z 
10 1 4.57416 4.60982 4.58591 
11 1 3.08227 3.07962 3.08199 
12 1 3.78282 3.79827 3.78826 
46 1 0.742218 0.733711 0.736265 
47 1 2.27279 2.27131 2.27218 
48 1 1.56744 1.56271 1.56448 
19 1 4.53691 4.53763 6.23187 
20 1 2.9976 2.9954 7.78165 
21 1 3.70159 3.70072 7.07291 
31 1 0.667632 0.66854 10.1004 
32 1 2.18349 2.18224 8.59373 
33 1 1.47426 1.47403 9.29871 
16 1 4.52836 6.24547 4.52872 
17 1 2.99527 7.78195 2.99581 
18 1 3.70178 7.07388 3.70219 
25 1 0.67445 10.0974 0.673209 
26 1 2.18598 8.5907 2.18624 
27 1 1.47755 9.29681 1.47711 
4 1 4.58976 6.18506 6.16951 
5 1 3.08286 7.6876 7.68907 
6 1 3.78999 6.98278 6.97621 
37 1 0.740918 10.0344 10.0348 
38 1 2.27077 8.49727 8.49699 
39 1 1.56596 9.20533 9.20551 
13 1 6.23976 4.53456 4.52501 
14 1 7.78953 2.98654 2.98948 
15 1 7.08308 3.69245 3.69466 
28 1 10.106 0.663878 0.662438 
29 1 8.60032 2.17572 2.17657 
30 1 9.30561 1.4675 1.46737 
1 1 6.12511 4.64825 6.08418 
2 1 7.58034 3.16936 7.90984 
3 1 6.94138 3.83574 6.85776 
40 1 10.0335 0.738824 10.0267 
41 1 8.5027 2.26808 8.46616 
42 1 9.21355 1.55905 9.18045 
49 2 6.50347 4.17377 8.1681 
7 1 6.16264 6.19823 4.59074 
8 1 7.6901 7.68775 3.0819 
9 1 6.97274 6.98831 3.79045 
43 1 10.0372 10.0304 0.738952 
44 1 8.49743 8.49743 2.27094 
45 1 9.20682 9.20374 1.56512 
22 1 6.23729 6.23206 6.23849 
23 1 7.78042 7.77897 7.78083 
24 1 7.07493 7.07182 7.07566 
34 1 10.105 10.107 10.1038 
35 1 8.59343 8.59323 8.59353 
36 1 9.30073 9.30164 9.30013 
ITEM: TIMESTEP
50
ITEM: NUMBER OF ATOMS
49
ITEM: BOX BOUNDS pp pp pp
0.0000000000000000e+00 1.1000000000000000e+01
0.0000000000000000e+00 1.1002000000000001e+01
0.0000000000000000e+00 1.1000000000000000e+01
ITEM: ATOMS id type x y z 
10 1 4.57585 4.61257 4.58902 
11 1 3.08283 3.08195 3.08311 
12 1 3.78341 3.80012 3.78962 
46 1 0.740175 0.734129 0.734373 
47 1 2.2732 2.27046 2.27229 
48 1 1.5673 1.56298 1.56403 
19 1 4.54578 4.53686 6.23562 
20 1 2.99862 2.99694 7.77935 
21 1 3.70615 3.70127 7.07325 
31 1 0.663021 0.670177 10.0977 
32 1 2.18507 2.1826 8.59346 
33 1 1.47348 1.47551 9.29697 
16 1 4.52763 6.2464 4.52882 
17 1 2.99424 7.783 2.99503 
18 1 3.70074 7.07499 3.70111 
25 1 0.672272 10.0999 0.67048 
26 1 2.18447 8.59268 2.18483 
27 1 1.47592 9.29751 1.47506 
4 1 4.59186 6.18291 6.16912 
5 1 3.08337 7.68715 7.68754 
6 1 3.79054 6.98178 6.97571 
37 1 0.739309 10.0355 10.0341 
38 1 2.27096 8.49742 8.49782 
39 1 1.56569 9.20565 9.20528 
13 1 6.24029 4.53404 4.52852 
14 1 7.7907 2.9857 2.99224 
15 1 7.081 3.69433 3.69094 
28 1 10.1054 0.665249 0.65389 
29 1 8.60186 2.17531 2.17612 
30 1 9.30458 1.46589 1.46583 
1 1 6.13847 4.6338 6.09063 
2 1 7.56939 3.17956 7.92195 
3 1 6.9499 3.8274 6.85484 
40 1 10.0324 0.74076 10.0176 
41 1 8.49605 2.27475 8.46876 
42 1 9.20872 1.5631 9.17422 
49 2 6.51169 4.16616 8.18786 
7 1 6.16062 6.19712 4.59366 
8 1 7.68804 7.68766 3.08262 
9 1 6.97163 6.9882 3.79159 
43 1 10.0371 10.0327 0.736283 
44 1 8.49908 8.49782 2.2705 
45 1 9.20705 9.20433 1.56427 
22 1 6.23743 6.22407 6.24115 
23 1 7.77843 7.77708 7.77845 
24 1 7.07401 7.0668 7.07552 
34 1 10.103 10.1115 10.1012 
35 1 8.59264 8.5912 8.59276 
36 1 9.29866 9.30206 9.29792 
ITEM: TIMESTEP
60
ITEM: NUMBER OF ATOMS
49
ITEM: BOX BOUNDS pp pp pp
0.0000000000000000e+00 1.1000000000000000e+01
0.0000000000000000e+00 1.1002000000000001e+01
0.0000000000000000e+00 1.1000000000000000e+01
ITEM: ATOMS id type x y z 
10 1 4.57585 4.61296 4.58947 
11 1 3.08281 3.0823 3.08316 
12 1 3.7832 3.80034 3.78984 
46 1 0.739501 0.734716 0.733564 
47 1 2.27306 2.26989 2.27202 
48 1 1.56712 1.56321 1.56383 
19 1 4.54744 4.53602 6.23656 
20 1 2.99868 2.99706 7.77917 
21 1 3.70702 3.70093 7.07363 
31 1 0.663265 0.670681 10.0975 
32 1 2.18536 2.18294 8.59313 
33 1 1.47366 1.47585 9.29656 
16 1 4.5278 6.24628 4.52916 
17 1 2.99415 7.78309 2.99489 
18 1 3.70061 7.07513 3.70123 
25 1 0.672078 10.1004 0.669871 
26 1 2.18391 8.59266 2.18424 
27 1 1.47591 9.29861 1.47503 
4 1 4.59221 6.18249 6.16921 
5 1 3.08331 7.68713 7.68741 
6 1 3.79063 6.98175 6.97566 
37 1 0.738886 10.0359 10.0334 
38 1 2.27113 8.49733 8.49798 
39 1 1.56548 9.20587 9.20512 
13 1 6.24031 4.534 4.52751 
14 1 7.79036 2.98608 2.99088 
15 1 7.08238 3.69308 3.69282 
28 1 10.1052 0.66515 0.653676 
29 1 8.60177 2.17397 2.17664 
30 1 9.3053 1.46762 1.4641 
1 1 6.13971 4.63242 6.08993 
2 1 7.56907 3.17992 7.92429 
3 1 6.94994 3.82708 6.85764 
40 1 10.0323 0.740658 10.0164 
41 1 8.49591 2.27451 8.46918 
42 1 9.20939 1.56307 9.17411 
49 2 6.50996 4.16803 8.1894 
7 1 6.16042 6.19715 4.59414 
8 1 7.68789 7.68779 3.08264 
9 1 6.97129 6.98848 3.79171 
43 1 10.0362 10.0333 0.735548 
44 1 8.49911 8.49752 2.27076 
45 1 9.20694 9.20449 1.56413 
22 1 6.2382 6.22245 6.24184 
23 1 7.77835 7.7768 7.77837 
24 1 7.07408 7.06595 7.07571 
34 1 10.1023 10.1113 10.1001 
35 1 8.59218 8.59084 8.59236 
36 1 9.29834 9.30179 9.2974 
ITEM: TIMESTEP
70
ITEM: NUMBER OF ATOMS
49
ITEM: BOX BOUNDS pp pp pp
0.0000000000000000e+00 1.1000000000000000e+01
0.0000000000000000e+00 1.1002000000000001e+01
0.0000000000000000e+00 1.1000000000000000e+01
ITEM: ATOMS id type x y z 
10 1 4.57587 4.61296 4.58952 
11 1 3.08279 3.08233 3.08319 
12 1 3.78322 3.80035 3.78982 
46 1 0.739469 0.734751 0.733528 
47 1 2.2731 2.26992 2.27206 
48 1 1.56708 1.56319 1.56379 
19 1 4.54755 4.53598 6.2366 
20 1 2.99868 2.99706 7.77917 
21 1 3.70711 3.70094 7.07362 
31 1 0.663315 0.670712 10.0975 
32 1 2.18536 2.18295 8.59311 
33 1 1.47368 1.47587 9.29653 
16 1 4.52784 6.24624 4.52911 
17 1 2.9942 7.78303 2.99481 
18 1 3.70049 7.07527 3.70136 
25 1 0.672005 10.1004 0.669816 
26 1 2.18388 8.59264 2.18419 
27 1 1.47591 9.29871 1.47505 
4 1 4.59221 6.18245 6.16924 
5 1 3.08329 7.68713 7.68739 
6 1 3.79066 6.98175 6.97567 
37 1 0.738853 10.0359 10.0334 
38 1 2.2711 8.49735 8.49801 
39 1 1.5655 9.20586 9.20508 
13 1 6.24033 4.53397 4.52756 
14 1 7.7904 2.98604 2.99087 
15 1 7.08232 3.69314 3.69284 
28 1 10.1052 0.665076 0.653713 
29 1 8.60177 2.17387 2.17668 
30 1 9.30535 1.46776 1.46396 
1 1 6.13977 4.63233 6.08982 
2 1 7.56902 3.17996 7.9245 
3 1 6.94993 3.82707 6.85779 
40 1 10.0323 0.74066 10.0164 
41 1 8.49588 2.27455 8.46918 
42 1 9.20938 1.56306 9.17408 
49 2 6.5099 4.16811 8.18949 
7 1 6.16042 6.19712 4.59416 
8 1 7.68787 7.68781 3.08263 
9 1 6.97128 6.98848 3.79173 
43 1 10.0363 10.0333 0.735534 
44 1 8.49925 8.49756 2.27076 
45 1 9.20679 9.20451 1.56404 
22 1 6.23826 6.22234 6.24187 
23 1 7.77835 7.77677 7.77836 
24 1 7.07407 7.06592 7.07573 
34 1 10.1023 10.1113 10.1001 
35 1 8.59215 8.59081 8.59234 
36 1 9.29831 9.30179 9.29736 
ITEM: TIMESTEP
80
ITEM: NUMBER OF ATOMS
49
ITEM: BOX BOUNDS pp pp pp
-4.5955355660480405e-03 1.1004595535566052e+01
-4.5318672504757254e-03 1.1006531867250477e+01
-2.8753069281375922e-03 1.1002875306928138e+01
ITEM: ATOMS id type x y z 
10 1 4.5756 4.61269 4.5896 
11 1 3.08086 3.08048 3.08207 
12 1 3.7817 3.7988 3.78878 
46 1 0.735122 0.730519 0.730672 
47 1 2.27023 2.26709 2.2702 
48 1 1.56357 1.55969 1.56148 
19 1 4.54743 4.53558 6.23661 
20 1 2.99678 2.99521 7.78016 
21 1 3.70602 3.69976 7.07409 
31 1 0.658893 0.666353 10.1003 
32 1 2.18247 2.18015 8.59485 
33 1 1.4705 1.47265 9.29833 
16 1 4.5274 6.24647 4.52897 
17 1 2.99229 7.78473 2.99368 
18 1 3.69922 7.07634 3.70067 
25 1 0.667501 10.1047 0.666822 
26 1 2.18095 8.5953 2.1823 
27 1 1.4727 9.30176 1.47311 
4 1 4.592 6.18247 6.16915 
5 1 3.08138 7.68883 7.68838 
6 1 3.78913 6.98306 6.97664 
37 1 0.734505 10.04 10.0361 
38 1 2.26822 8.50001 8.49976 
39 1 1.56199 9.20915 9.20727 
13 1 6.24061 4.5335 4.52778 
14 1 7.79209 2.98418 2.98972 
15 1 7.08335 3.69197 3.69231 
28 1 10.1094 0.660703 0.650761 
29 1 8.6045 2.17103 2.1748 
30 1 9.30837 1.46453 1.46201 
1 1 6.13991 4.632 6.08951 
2 1 7.57058 3.17822 7.92569 
3 1 6.95091 3.82588 6.85888 
40 1 10.0364 0.73641 10.019 
41 1 8.49846 2.27182 8.4709 
42 1 9.21276 1.55954 9.17626 
49 2 6.51086 4.16693 8.19069 
7 1 6.1605 6.19719 4.59422 
8 1 7.68954 7.68952 3.08147 
9 1 6.97269 6.98981 3.79073 
43 1 10.0404 10.0374 0.73266 
44 1 8.50195 8.50024 2.26886 
45 1 9.21015 9.20779 1.56175 
22 1 6.23849 6.22227 6.24187 
23 1 7.78004 7.77843 7.77935 
24 1 7.07505 7.06679 7.07622 
34 1 10.1065 10.1154 10.1029 
35 1 8.59481 8.59346 8.59407 
36 1 9.30136 9.30477 9.29913 
ITEM: TIMESTEP
90
ITEM: NUMBER OF ATOMS
49
ITEM: BOX BOUNDS pp pp pp
-8.5762824636724504e-03 1.1008576282463679e+01
-8.4296991971370607e-03 1.1010429699197138e+01
-4.5103473939328217e-03 1.1004510347393932e+01
ITEM: ATOMS id type x y z 
10 1 4.57591 4.61315 4.59044 
11 1 3.07937 3.07908 3.0816 
12 1 3.78009 3.79732 3.78801 
46 1 0.730749 0.72633 0.728322 
47 1 2.26714 2.264 2.26847 
48 1 1.56045 1.55666 1.56003 
19 1 4.54813 4.53572 6.23606 
20 1 2.99584 2.99433 7.77995 
21 1 3.70515 3.69867 7.07435 
31 1 0.654493 0.661933 10.1026 
32 1 2.17984 2.17758 8.59595 
33 1 1.46797 1.47021 9.29909 
16 1 4.52756 6.24614 4.52955 
17 1 2.99125 7.78556 2.9937 
18 1 3.69813 7.07725 3.70039 
25 1 0.662888 10.109 0.664284 
26 1 2.17826 8.59782 2.18101 
27 1 1.47007 9.30412 1.47219 
4 1 4.59247 6.18179 6.16838 
5 1 3.0799 7.69009 7.68875 
6 1 3.78757 6.98446 6.97737 
37 1 0.730123 10.0441 10.0383 
38 1 2.26512 8.50292 8.50145 
39 1 1.55886 9.21205 9.20862 
13 1 6.24047 4.53348 4.52888 
14 1 7.79286 2.98326 2.98974 
15 1 7.08443 3.6908 3.69207 
28 1 10.1137 0.656262 0.648334 
29 1 8.60699 2.16839 2.17354 
30 1 9.3108 1.46204 1.46111 
1 1 6.1398 4.63195 6.08874 
2 1 7.57171 3.17695 7.92616 
3 1 6.95128 3.82525 6.86039 
40 1 10.0405 0.732199 10.0209 
41 1 8.50109 2.26907 8.47263 
42 1 9.21574 1.55643 9.17761 
49 2 6.51197 4.16569 8.19088 
7 1 6.15992 6.1967 4.59505 
8 1 7.69084 7.69082 3.08102 
9 1 6.97402 6.99125 3.78993 
43 1 10.0445 10.0415 0.730281 
44 1 8.50498 8.50317 2.26709 
45 1 9.21309 9.2107 1.56029 
22 1 6.23821 6.22139 6.24127 
23 1 7.7808 7.77912 7.77914 
24 1 7.07595 7.06751 7.07646 
34 1 10.1109 10.1196 10.1052 
35 1 8.59725 8.59587 8.59515 
36 1 9.30368 9.30704 9.29989 
ITEM: TIMESTEP
100
ITEM: NUMBER OF ATOMS
49
ITEM: BOX BOUNDS pp pp pp
-1.3821476440786906e-02 1.1013821476440794e+01
-1.3462601097689606e-02 1.1015462601097692e+01
-9.3864713628440954e-03 1.1009386471362848e+01
ITEM: ATOMS id type x y z 
10 1 4.57648 4.61402 4.59128 
11 1 3.07748 3.07733 3.07985 
12 1 3.77781 3.79543 3.7861 
46 1 0.724571 0.720626 0.722451 
47 1 2.26274 2.25964 2.26423 
48 1 1.55635 1.55278 1.55623 
19 1 4.54928 4.53609 6.23543 
20 1 2.99494 2.99353 7.78038 
21 1 3.70411 3.69729 7.07566 
31 1 0.648481 0.656002 10.108 
32 1 2.1764 2.17421 8.59892 
33 1 1.46472 1.46729 9.30184 
16 1 4.52811 6.24534 4.5302 
17 1 2.99018 7.78632 2.99285 
18 1 3.69672 7.07838 3.69905 
25 1 0.656581 10.115 0.658328 
26 1 2.17465 8.60116 2.17762 
27 1 1.46664 9.30705 1.46904 
4 1 4.59327 6.18072 6.16745 
5 1 3.07795 7.69172 7.6902 
6 1 3.78551 6.98624 6.97928 
37 1 0.723927 10.0499 10.0436 
38 1 2.26067 8.50707 8.50554 
39 1 1.55478 9.21576 9.21218 
13 1 6.24015 4.53368 4.53 
14 1 7.79366 2.9824 2.98871 
15 1 7.0858 3.68918 3.69097 
28 1 10.1196 0.650309 0.642453 
29 1 8.61032 2.16487 2.17021 
30 1 9.31395 1.459 1.45794 
1 1 6.13989 4.63167 6.0881 
2 1 7.57342 3.17513 7.92793 
3 1 6.95146 3.8247 6.86361 
40 1 10.0463 0.726377 10.0259 
41 1 8.50475 2.2653 8.4771 
42 1 9.21963 1.55245 9.1811 
49 2 6.51351 4.16406 8.19237 
7 1 6.15885 6.19599 4.5959 
8 1 7.69244 7.69255 3.07932 
9 1 6.97588 6.99305 3.78787 
43 1 10.0501 10.0473 0.724358 
44 1 8.50933 8.50733 2.26281 
45 1 9.21692 9.21443 1.55645 
22 1 6.23758 6.22008 6.24061 
23 1 7.78141 7.77971 7.77964 
24 1 7.07727 7.06817 7.07766 
34 1 10.1167 10.1253 10.1105 
35 1 8.60047 8.59903 8.59805 
36 1 9.30656 9.30977 9.30271 
ITEM: TIMESTEP
110
ITEM: NUMBER OF ATOMS
49
ITEM: BOX BOUNDS pp pp pp
-1.5184593778889912e-02 1.1015184593778898e+01
-1.4740787010208860e-02 1.1016740787010210e+01
-1.1935024306493312e-02 1.1011935024306501e+01
ITEM: ATOMS id type x y z 
10 1 4.57689 4.6145 4.59161 
11 1 3.07703 3.07698 3.07897 
12 1 3.77715 3.79492 3.78504 
46 1 0.722552 0.718848 0.719426 
47 1 2.2613 2.25816 2.26209 
48 1 1.55521 1.55181 1.5542 
19 1 4.55001 4.53646 6.23522 
20 1 2.99507 2.99364 7.78079 
21 1 3.70398 3.69703 7.07613 
31 1 0.646663 0.654407 10.1107 
32 1 2.17542 2.17343 8.60048 
33 1 1.46409 1.46653 9.30318 
16 1 4.52863 6.24476 4.53051 
17 1 2.9902 7.78622 2.99234 
18 1 3.69639 7.07861 3.69834 
25 1 0.654666 10.1168 0.655405 
26 1 2.17362 8.6021 2.17586 
27 1 1.46584 9.3077 1.46737 
4 1 4.5938 6.18015 6.16717 
5 1 3.07755 7.69207 7.69098 
6 1 3.78484 6.98673 6.98023 
37 1 0.721937 10.0517 10.0464 
38 1 2.25928 8.50839 8.50763 
39 1 1.5536 9.21681 9.21394 
13 1 6.23984 4.53393 4.53045 
14 1 7.79352 2.9825 2.98817 
15 1 7.08612 3.68889 3.69038 
28 1 10.1214 0.648689 0.639451 
29 1 8.6113 2.164 2.16845 
30 1 9.31456 1.45817 1.45636 
1 1 6.14 4.63149 6.08791 
2 1 7.57401 3.17456 7.92889 
3 1 6.9512 3.8248 6.86536 
40 1 10.0482 0.724553 10.0285 
41 1 8.50575 2.26427 8.47952 
42 1 9.22075 1.55133 9.18289 
49 2 6.51402 4.16358 8.19327 
7 1 6.15833 6.19543 4.59612 
8 1 7.69277 7.69284 3.07832 
9 1 6.97639 6.99382 3.78699 
43 1 10.0519 10.0492 0.7213 
44 1 8.51081 8.50865 2.2607 
45 1 9.21792 9.21551 1.55438 
22 1 6.23718 6.21931 6.24034 
23 1 7.78128 7.77942 7.78002 
24 1 7.07746 7.06825 7.07818 
34 1 10.1183 10.1269 10.1132 
35 1 8.60127 8.5998 8.59964 
36 1 9.30723 9.31042 9.30394 
ITEM: TIMESTEP
120
ITEM: NUMBER OF ATOMS
49
ITEM: BOX BOUNDS pp pp pp
-1.6613915655399963e-02 1.1016613915655411e+01
-1.6060998612198681e-02 1.1018060998612203e+01
-1.5137874618964558e-02 1.1015137874618976e+01
ITEM: ATOMS id type x y z 
10 1 4.5772 4.61494 4.5917 
11 1 3.07651 3.07669 3.07772 
12 1 3.77651 3.79429 3.78391 
46 1 0.720451 0.717122 0.715834 
47 1 2.25984 2.25675 2.25963 
48 1 1.55411 1.55074 1.55169 
19 1 4.55061 4.53677 6.23507 
20 1 2.99515 2.9937 7.78144 
21 1 3.70387 3.69677 7.07689 
31 1 0.644953 0.652784 10.1137 
32 1 2.1745 2.17255 8.6023 
33 1 1.46333 1.46597 9.30507 
16 1 4.52915 6.24417 4.53068 
17 1 2.99014 7.78616 2.99145 
18 1 3.69604 7.07889 3.69748 
25 1 0.652765 10.1185 0.651956 
26 1 2.17255 8.60298 2.1737 
27 1 1.46504 9.30852 1.46528 
4 1 4.59421 6.17961 6.16713 
5 1 3.07706 7.69239 7.69209 
6 1 3.78422 6.98736 6.98125 
37 1 0.719878 10.0536 10.0496 
38 1 2.25787 8.5097 8.51 
39 1 1.55239 9.21789 9.21622 
13 1 6.2396 4.53415 4.53069 
14 1 7.79347 2.98256 2.9873 
15 1 7.0864 3.68855 3.68958 
28 1 10.123 0.647051 0.636012 
29 1 8.61222 2.16302 2.16638 
30 1 9.31532 1.45754 1.45418 
1 1 6.14026 4.63116 6.08788 
2 1 7.57476 3.17385 7.93018 
3 1 6.95097 3.82487 6.86735 
40 1 10.05 0.722726 10.0315 
41 1 8.50668 2.26331 8.48238 
42 1 9.22191 1.55018 9.18511 
49 2 6.51453 4.16312 8.19457 
7 1 6.1579 6.19506 4.59623 
8 1 7.6931 7.69329 3.07711 
9 1 6.97695 6.99438 3.78576 
43 1 10.0537 10.0512 0.717645 
44 1 8.51224 8.51001 2.25821 
45 1 9.21906 9.21655 1.55188 
22 1 6.23682 6.21866 6.24014 
23 1 7.7812 7.77918 7.78069 
24 1 7.07766 7.06826 7.07889 
34 1 10.12 10.1285 10.1162 
35 1 8.60214 8.60059 8.60141 
36 1 9.30778 9.31099 9.30586 
ITEM: TIMESTEP
130
ITEM: NUMBER OF ATOMS
49
ITEM: BOX BOUNDS pp pp pp
-1.7759492259669756e-02 1.1017759492259678e+01
-1.7086657813391627e-02 1.1019086657813398e+01
-1.8624544530646336e-02 1.1018624544530660e+01
ITEM: ATOMS id type x y z 
10 1 4.57753 4.61534 4.5917 
11 1 3.07607 3.07655 3.07635 
12 1 3.77596 3.79374 3.78269 
46 1 0.718571 0.715625 0.711847 
47 1 2.25861 2.25546 2.25695 
48 1 1.55301 1.54991 1.54898 
19 1 4.55123 4.53709 6.23491 
20 1 2.99544 2.9939 7.78216 
21 1 3.70391 3.69668 7.07771 
31 1 0.643558 0.651677 10.117 
32 1 2.17373 2.17206 8.60427 
33 1 1.46297 1.46541 9.30697 
16 1 4.5298 6.24347 4.53087 
17 1 2.99023 7.78598 2.99042 
18 1 3.69578 7.07905 3.6966 
25 1 0.651124 10.1199 0.648368 
26 1 2.17156 8.60364 2.17145 
27 1 1.46462 9.30919 1.46286 
4 1 4.59452 6.17907 6.16716 
5 1 3.07659 7.69261 7.69322 
6 1 3.78386 6.98792 6.98253 
37 1 0.717992 10.0553 10.0531 
38 1 2.25661 8.51089 8.51257 
39 1 1.55136 9.21879 9.21869 
13 1 6.23933 4.53442 4.53089 
14 1 7.79328 2.98279 2.98633 
15 1 7.08654 3.68835 3.68876 
28 1 10.1244 0.645919 0.632332 
29 1 8.61301 2.16237 2.16413 
30 1 9.31571 1.45696 1.45187 
1 1 6.1407 4.63065 6.08791 
2 1 7.57561 3.17307 7.93165 
3 1 6.95061 3.82505 6.86966 
40 1 10.0517 0.72114 10.0347 
41 1 8.50732 2.26263 8.48567 
42 1 9.22295 1.54918 9.18752 
49 2 6.51499 4.16273 8.19614 
7 1 6.15752 6.19455 4.59609 
8 1 7.69331 7.69352 3.07562 
9 1 6.97745 6.99514 3.78471 
43 1 10.0552 10.0529 0.71363 
44 1 8.51359 8.51118 2.25555 
45 1 9.21995 9.21747 1.54914 
22 1 6.23645 6.218 6.23995 
23 1 7.78099 7.77871 7.78146 
24 1 7.07771 7.06818 7.07963 
34 1 10.1212 10.1296 10.1194 
35 1 8.60265 8.60111 8.60344 
36 1 9.30829 9.3114 9.30759 
ITEM: TIMESTEP
140
ITEM: NUMBER OF ATOMS
49
ITEM: BOX BOUNDS pp pp pp
-1.8618896157302535e-02 1.1018618896157308e+01
-1.7965939969665237e-02 1.1019965939969671e+01
-2.1547436878955526e-02 1.1021547436878969e+01
ITEM: ATOMS id type x y z 
10 1 4.57767 4.61543 4.59169 
11 1 3.07566 3.07633 3.07527 
12 1 3.77561 3.79344 3.78148 
46 1 0.717135 0.714524 0.708551 
47 1 2.25768 2.25449 2.25478 
48 1 1.55225 1.54915 1.54675 
19 1 4.55167 4.53728 6.23487 
20 1 2.99571 2.99401 7.78292 
21 1 3.70395 3.69656 7.07824 
31 1 0.642784 0.650641 10.1193 
32 1 2.17335 2.17141 8.60566 
33 1 1.46249 1.46551 9.30889 
16 1 4.53024 6.243 4.53106 
17 1 2.99024 7.78593 2.98959 
18 1 3.69567 7.07915 3.6957 
25 1 0.650123 10.121 0.645436 
26 1 2.17107 8.60432 2.16954 
27 1 1.46391 9.30947 1.46093 
4 1 4.59479 6.17885 6.16741 
5 1 3.07635 7.69297 7.69424 
6 1 3.7833 6.98814 6.98352 
37 1 0.716542 10.0566 10.0559 
38 1 2.25566 8.51182 8.51464 
39 1 1.55062 9.21957 9.22079 
13 1 6.23917 4.53453 4.53094 
14 1 7.79315 2.98286 2.98542 
15 1 7.08665 3.68822 3.6881 
28 1 10.1251 0.644831 0.629489 
29 1 8.61338 2.16159 2.16243 
30 1 9.31627 1.457 1.44969 
1 1 6.14117 4.63006 6.08801 
2 1 7.57641 3.17229 7.93299 
3 1 6.95034 3.82512 6.87162 
40 1 10.0529 0.719885 10.0373 
41 1 8.50767 2.26217 8.48852 
42 1 9.22378 1.5483 9.18957 
49 2 6.51535 4.16242 8.19764 
7 1 6.15738 6.19445 4.59603 
8 1 7.69348 7.69402 3.07456 
9 1 6.9778 6.99535 3.78341 
43 1 10.0564 10.0543 0.710285 
44 1 8.51468 8.51207 2.25339 
45 1 9.22053 9.21841 1.54674 
22 1 6.23619 6.21764 6.23981 
23 1 7.78081 7.77841 7.78217 
24 1 7.0778 7.06801 7.08028 
34 1 10.122 10.1305 10.1218 
35 1 8.60306 8.60161 8.60481 
36 1 9.30843 9.31151 9.30947 
ITEM: TIMESTEP
150
ITEM: NUMBER OF ATOMS
49
ITEM: BOX BOUNDS pp pp pp
-1.8769101813592207e-02 1.1018769101813600e+01
-1.7929379015653429e-02 1.1019929379015659e+01
-2.3617445898479188e-02 1.1023617445898495e+01
ITEM: ATOMS id type x y z 
10 1 4.57781 4.61557 4.59154 
11 1 3.07558 3.07651 3.07437 
12 1 3.77534 3.79335 3.78083 
46 1 0.71644 0.714256 0.70609 
47 1 2.25726 2.25402 2.25321 
48 1 1.55191 1.54919 1.545 
19 1 4.55205 4.53753 6.23478 
20 1 2.99618 2.99443 7.78339 
21 1 3.70426 3.69672 7.07861 
31 1 0.642691 0.650896 10.1211 
32 1 2.17333 2.17177 8.60677 
33 1 1.46276 1.46555 9.30974 
16 1 4.53073 6.24254 4.53125 
17 1 2.99055 7.78559 2.98901 
18 1 3.69569 7.07897 3.69518 
25 1 0.649902 10.1213 0.643389 
26 1 2.17101 8.6044 2.16822 
27 1 1.46379 9.3092 1.45957 
4 1 4.59498 6.17859 6.16763 
5 1 3.07622 7.69294 7.69493 
6 1 3.78325 6.98827 6.98435 
37 1 0.715857 10.0571 10.0579 
38 1 2.25526 8.51215 8.51617 
39 1 1.55032 9.21975 9.22228 
13 1 6.23905 4.53468 4.531 
14 1 7.79285 2.98322 2.98482 
15 1 7.0866 3.68835 3.68761 
28 1 10.1253 0.64512 0.627365 
29 1 8.61352 2.16184 2.16111 
30 1 9.31592 1.45693 1.44845 
1 1 6.14161 4.62965 6.08816 
2 1 7.57697 3.17187 7.93406 
3 1 6.94999 3.82538 6.8733 
40 1 10.0534 0.719548 10.039 
41 1 8.50758 2.26231 8.49092 
42 1 9.22415 1.54806 9.19106 
49 2 6.51557 4.16234 8.19888 
7 1 6.15731 6.19429 4.5959 
8 1 7.69342 7.69405 3.07367 
9 1 6.97796 6.99558 3.7827 
43 1 10.0568 10.0549 0.707767 
44 1 8.51516 8.51244 2.25183 
45 1 9.22082 9.21852 1.54503 
22 1 6.23592 6.21723 6.23965 
23 1 7.78044 7.77776 7.78269 
24 1 7.07761 7.06762 7.08053 
34 1 10.122 10.1304 10.1234 
35 1 8.60288 8.60138 8.60588 
36 1 9.30829 9.31125 9.31033 
ITEM: TIMESTEP
160
ITEM: NUMBER OF ATOMS
49
ITEM: BOX BOUNDS pp pp pp
-1.8599119727562119e-02 1.1018599119727570e+01
-1.7676995097692619e-02 1.1019676995097697e+01
-2.4717504584785270e-02 1.1024717504584803e+01
ITEM: ATOMS id type x y z 
10 1 4.57785 4.61566 4.59148 
11 1 3.07555 3.07673 3.07391 
12 1 3.77532 3.79333 3.78039 
46 1 0.716193 0.714342 0.704664 
47 1 2.25715 2.25388 2.25236 
48 1 1.55189 1.54934 1.54399 
19 1 4.55233 4.5377 6.23467 
20 1 2.99664 2.99481 7.78361 
21 1 3.70459 3.6969 7.07873 
31 1 0.643006 0.651278 10.1219 
32 1 2.17357 2.17213 8.60723 
33 1 1.46313 1.46593 9.31016 
16 1 4.53107 6.24219 4.53146 
17 1 2.99085 7.78523 2.98875 
18 1 3.69588 7.07881 3.69496 
25 1 0.649945 10.1212 0.642307 
26 1 2.17108 8.60425 2.16755 
27 1 1.46405 9.30895 1.45884 
4 1 4.59514 6.17846 6.16785 
5 1 3.07629 7.69288 7.69536 
6 1 3.78315 6.98827 6.98475 
37 1 0.715614 10.0573 10.059 
38 1 2.25512 8.51225 8.51704 
39 1 1.55033 9.21974 9.2231 
13 1 6.23898 4.53478 4.53108 
14 1 7.79255 2.98358 2.98453 
15 1 7.08648 3.68849 3.68739 
28 1 10.1251 0.645482 0.626316 
29 1 8.6134 2.16209 2.16053 
30 1 9.31551 1.45727 1.44769 
1 1 6.14196 4.6293 6.08821 
2 1 7.57731 3.17163 7.93477 
3 1 6.94968 3.8256 6.87443 
40 1 10.0535 0.719535 10.0399 
41 1 8.5073 2.26259 8.49253 
42 1 9.22427 1.54802 9.19192 
49 2 6.51569 4.16232 8.19973 
7 1 6.15727 6.19417 4.59576 
8 1 7.6933 7.69401 3.07314 
9 1 6.97799 6.99578 3.78235 
43 1 10.0568 10.0551 0.706289 
44 1 8.51541 8.51257 2.25095 