ITEM: TIMESTEP
0
ITEM: NUMBER OF ATOMS
49
ITEM: BOX BOUNDS pp pp pp
0.0000000000000000e+00 1.1000000000000000e+01
0.0000000000000000e+00 1.1002000000000001e+01
0.0000000000000000e+00 1.1000000000000000e+01
ITEM: ATOMS id type x y z 
10 1 4.603 4.603 4.603 
11 1 3.085 3.085 3.085 
12 1 3.796 3.796 3.796 
46 1 0.726 0.725 0.725 
47 1 2.26 2.259 2.26 
48 1 1.551 1.55 1.55 
19 1 4.546 4.545 6.226 
20 1 3.013 3.013 7.764 
21 1 3.721 3.721 7.053 
31 1 0.668 0.667 10.103 
32 1 2.187 2.187 8.589 
33 1 1.476 1.475 9.298 
16 1 4.546 6.225 4.546 
17 1 3.013 7.765 3.013 
18 1 3.721 7.053 3.722 
25 1 0.668 10.103 0.668 
26 1 2.188 8.589 2.188 
27 1 1.476 9.298 1.476 
49 2 1.733 8.822 3.156 
4 1 4.608 6.169 6.169 
5 1 3.086 7.684 7.684 
6 1 3.799 6.974 6.974 
37 1 0.729 10.046 10.046 
38 1 2.259 8.509 8.508 
39 1 1.552 9.219 9.219 
13 1 6.225 4.546 4.546 
14 1 7.764 3.013 3.013 
15 1 7.053 3.721 3.722 
28 1 10.102 0.667 0.668 
29 1 8.589 2.187 2.188 
30 1 9.298 1.475 1.476 
1 1 6.168 4.608 6.169 
2 1 7.684 3.086 7.684 
3 1 6.974 3.799 6.974 
40 1 10.045 0.728 10.046 
41 1 8.508 2.259 8.508 
42 1 9.218 1.551 9.218 
7 1 6.169 6.169 4.608 
8 1 7.684 7.684 3.086 
9 1 6.974 6.974 3.799 
43 1 10.046 10.047 0.729 
44 1 8.508 8.509 2.259 
45 1 9.219 9.219 1.552 
22 1 6.229 6.229 6.229 
23 1 7.764 7.765 7.765 
24 1 7.055 7.056 7.055 
34 1 10.108 10.108 10.107 
35 1 8.59 8.59 8.59 
36 1 9.301 9.301 9.3 
ITEM: TIMESTEP
10
ITEM: NUMBER OF ATOMS
49
ITEM: BOX BOUNDS pp pp pp
0.0000000000000000e+00 1.1000000000000000e+01
0.0000000000000000e+00 1.1002000000000001e+01
0.0000000000000000e+00 1.1000000000000000e+01
ITEM: ATOMS id type x y z 
10 1 4.60037 4.58658 4.59809 
11 1 3.07802 3.07953 3.07892 
12 1 3.79081 3.78624 3.78911 
46 1 0.726259 0.771219 0.726804 
47 1 2.27135 2.26471 2.27101 
48 1 1.55926 1.57058 1.55901 
19 1 4.53801 4.53378 6.23726 
20 1 3.00124 3.00101 7.77565 
21 1 3.70933 3.70986 7.06461 
31 1 0.674829 0.67256 10.1014 
32 1 2.18915 2.18991 8.58545 
33 1 1.4826 1.48003 9.29427 
16 1 4.53689 6.23382 4.54382 
17 1 3.08307 7.71243 2.9687 
18 1 3.72991 7.04848 3.70725 
25 1 0.684563 10.0896 0.663148 
26 1 2.19168 8.57973 2.24291 
27 1 1.47405 9.30823 1.42115 
49 2 1.65959 8.87125 3.23834 
4 1 4.60382 6.17433 6.18532 
5 1 3.07926 7.69063 7.6889 
6 1 3.79328 6.97965 6.98416 
37 1 0.731457 10.0447 9.99571 
38 1 2.272 8.49622 8.50145 
39 1 1.56117 9.20999 9.19685 
13 1 6.23557 4.53667 4.53851 
14 1 7.77114 3.00519 3.00545 
15 1 7.06659 3.70853 3.70912 
28 1 10.1005 0.670658 0.675724 
29 1 8.5857 2.19027 2.18952 
30 1 9.29335 1.47956 1.48402 
1 1 6.17524 4.60228 6.17343 
2 1 7.68725 3.08217 7.68789 
3 1 6.98219 3.79171 6.98069 
40 1 10.0371 0.735982 10.0372 
41 1 8.50017 2.2665 8.5001 
42 1 9.20746 1.56242 9.20787 
7 1 6.18435 6.17119 4.6042 
8 1 7.6893 7.691 3.07888 
9 1 6.98451 6.97999 3.79276 
43 1 9.99926 10.046 0.731622 
44 1 8.50118 8.49585 2.2722 
45 1 9.19945 9.21247 1.55922 
22 1 6.23997 6.23688 6.23866 
23 1 7.77207 7.77339 7.77308 
24 1 7.06727 7.06733 7.06684 
34 1 10.1009 10.1014 10.1032 
35 1 8.58613 8.58884 8.58571 
36 1 9.29645 9.29169 9.29678 
ITEM: TIMESTEP
20
ITEM: NUMBER OF ATOMS
49
ITEM: BOX BOUNDS pp pp pp
0.0000000000000000e+00 1.1000000000000000e+01
0.0000000000000000e+00 1.1002000000000001e+01
0.0000000000000000e+00 1.1000000000000000e+01
ITEM: ATOMS id type x y z 
10 1 4.6018 4.57551 4.60334 
11 1 3.08248 3.08049 3.07966 
12 1 3.78808 3.78427 3.79308 
46 1 0.719269 0.785086 0.720326 
47 1 2.27208 2.26508 2.2721 
48 1 1.55555 1.57459 1.55518 
19 1 4.53936 4.52856 6.24107 
20 1 3.00581 3.00569 7.77086 
21 1 3.70667 3.7064 7.06748 
31 1 0.675033 0.676035 10.1021 
32 1 2.18668 2.18925 8.58574 
33 1 1.4848 1.47939 9.29675 
16 1 4.54274 6.22655 4.55481 
17 1 3.09259 7.71002 2.92923 
18 1 3.75828 7.02463 3.70636 
25 1 0.680285 10.0953 0.640707 
26 1 2.14906 8.60995 2.28693 
27 1 1.48053 9.30586 1.40277 
49 2 1.65699 8.86789 3.27561 
4 1 4.60604 6.17005 6.19669 
5 1 3.08367 7.69037 7.68571 
6 1 3.79186 6.97326 6.98889 
37 1 0.723972 10.052 9.97577 
38 1 2.27455 8.49351 8.50501 
39 1 1.55565 9.21614 9.18397 
13 1 6.2397 4.53104 4.53745 
14 1 7.77457 3.00057 3.00087 
15 1 7.06793 3.70941 3.70934 
28 1 10.1022 0.667552 0.680371 
29 1 8.58711 2.18884 2.18929 
30 1 9.29314 1.4795 1.48275 
1 1 6.17401 4.59769 6.1757 
2 1 7.68863 3.08008 7.68584 
3 1 6.98019 3.79476 6.98504 
40 1 10.0334 0.73834 10.0332 
41 1 8.49809 2.26833 8.49754 
42 1 9.20741 1.56337 9.20891 
7 1 6.19679 6.17067 4.60535 
8 1 7.69046 7.68819 3.08082 
9 1 6.98412 6.98179 3.79246 
43 1 9.98657 10.0533 0.723951 
44 1 8.50438 8.49852 2.26979 
45 1 9.19412 9.21495 1.55712 
22 1 6.24568 6.23737 6.24286 
23 1 7.77402 7.7767 7.77387 
24 1 7.06857 7.06529 7.06888 
34 1 10.0981 10.0999 10.1066 
35 1 8.58686 8.58914 8.58649 
36 1 9.29504 9.29183 9.29735 
ITEM: TIMESTEP
30
ITEM: NUMBER OF ATOMS
49
ITEM: BOX BOUNDS pp pp pp
0.0000000000000000e+00 1.1000000000000000e+01
0.0000000000000000e+00 1.1002000000000001e+01
0.0000000000000000e+00 1.1000000000000000e+01
ITEM: ATOMS id type x y z 
10 1 4.60604 4.57369 4.6037 
11 1 3.07946 3.07942 3.08019 
12 1 3.79336 3.77864 3.79252 
46 1 0.717868 0.787061 0.718842 
47 1 2.27116 2.26548 2.2708 
48 1 1.55343 1.57859 1.55348 
19 1 4.53879 4.51985 6.24784 
20 1 2.9978 2.99965 7.77653 
21 1 3.71073 3.70401 7.0686 
31 1 0.672766 0.681748 10.1012 
32 1 2.18787 2.18716 8.58786 
33 1 1.47919 1.4829 9.29603 
16 1 4.55205 6.21787 4.56257 
17 1 3.11454 7.69609 2.89829 
18 1 3.76633 7.02236 3.67726 
25 1 0.676013 10.1015 0.61986 
26 1 2.11502 8.63277 2.32961 
27 1 1.48779 9.30213 1.38873 
49 2 1.63969 8.87544 3.32324 
4 1 4.61037 6.16745 6.20004 
5 1 3.08129 7.68799 7.68854 
6 1 3.79817 6.97613 6.99119 
37 1 0.719197 10.0566 9.96231 
38 1 2.27437 8.4935 8.50138 
39 1 1.55495 9.21702 9.18052 
13 1 6.24462 4.52767 4.53841 
14 1 7.77628 3.00056 2.99887 
15 1 7.06849 3.70545 3.70928 
28 1 10.1008 0.668415 0.681024 
29 1 8.58782 2.18826 2.18969 
30 1 9.29259 1.47987 1.48178 
1 1 6.17966 4.5976 6.1768 
2 1 7.68881 3.08036 7.68943 
3 1 6.98325 3.79035 6.98159 
40 1 10.0295 0.741786 10.0313 
41 1 8.49745 2.26976 8.49647 
42 1 9.20482 1.56533 9.20716 
7 1 6.19851 6.16726 4.60869 
8 1 7.69072 7.69066 3.07954 
9 1 6.99158 6.97874 3.79391 
43 1 9.98613 10.055 0.721578 
44 1 8.50411 8.49935 2.26896 
45 1 9.19183 9.21848 1.55398 
22 1 6.25243 6.23575 6.24761 
23 1 7.77544 7.77815 7.77499 
24 1 7.0708 7.06501 7.06964 
34 1 10.0902 10.1025 10.1052 
35 1 8.58624 8.58961 8.58718 
36 1 9.29479 9.29206 9.29781 
ITEM: TIMESTEP
40
ITEM: NUMBER OF ATOMS
49
ITEM: BOX BOUNDS pp pp pp
0.0000000000000000e+00 1.1000000000000000e+01
0.0000000000000000e+00 1.1002000000000001e+01
0.0000000000000000e+00 1.1000000000000000e+01
ITEM: ATOMS id type x y z 
10 1 4.60316 4.5786 4.60487 
11 1 3.08395 3.07967 3.0845 
12 1 3.79533 3.78161 3.79439 
46 1 0.718128 0.779703 0.717417 
47 1 2.27001 2.26761 2.27019 
48 1 1.55236 1.57926 1.55195 
19 1 4.54537 4.52509 6.24279 
20 1 2.99683 2.99743 7.77801 
21 1 3.70768 3.70018 7.07258 
31 1 0.668781 0.687745 10.1011 
32 1 2.19009 2.18971 8.58573 
33 1 1.47894 1.48598 9.29496 
16 1 4.55901 6.21189 4.56493 
17 1 3.114 7.69915 2.87926 
18 1 3.77299 7.02271 3.64224 
25 1 0.681675 10.0979 0.612349 
26 1 2.09606 8.64189 2.37525 
27 1 1.49835 9.29446 1.37851 
49 2 1.63483 8.87175 3.3765 
4 1 4.60865 6.16587 6.1939 
5 1 3.08781 7.68208 7.68752 
6 1 3.80084 6.97235 6.98694 
37 1 0.714981 10.0612 9.95802 
38 1 2.27576 8.49218 8.49639 
39 1 1.55586 9.21634 9.17504 
13 1 6.2438 4.5296 4.53997 
14 1 7.77696 2.99946 2.99845 
15 1 7.07015 3.70476 3.70825 
28 1 10.0997 0.668819 0.680009 
29 1 8.5876 2.18821 2.18806 
30 1 9.29407 1.47842 1.4833 
1 1 6.18101 4.59314 6.18102 
2 1 7.68668 3.08189 7.688 
3 1 6.98264 3.79215 6.9789 
40 1 10.0258 0.74535 10.0316 
41 1 8.4971 2.2708 8.49668 
42 1 9.20294 1.56603 9.2051 
7 1 6.19241 6.16863 4.60739 
8 1 7.69077 7.68721 3.08294 
9 1 6.98987 6.97721 3.79538 
43 1 9.99451 10.0556 0.721165 
44 1 8.50181 8.50318 2.26778 
45 1 9.19437 9.21688 1.55147 
22 1 6.24962 6.23072 6.24386 
23 1 7.77746 7.77908 7.77655 
24 1 7.07314 7.06645 7.07144 
34 1 10.0933 10.0987 10.1053 
35 1 8.59481 8.57963 8.58551 
36 1 9.27299 9.30876 9.29856 
ITEM: TIMESTEP
50
ITEM: NUMBER OF ATOMS
49
ITEM: BOX BOUNDS pp pp pp
0.0000000000000000e+00 1.1000000000000000e+01
0.0000000000000000e+00 1.1002000000000001e+01
0.0000000000000000e+00 1.1000000000000000e+01
ITEM: ATOMS id type x y z 
10 1 4.60326 4.5883 4.60112 
11 1 3.08537 3.0783 3.08229 
12 1 3.7922 3.77836 3.79804 
46 1 0.721899 0.768031 0.718499 
47 1 2.26661 2.26998 2.26729 
48 1 1.55327 1.57657 1.55223 
19 1 4.543 4.52826 6.24197 
20 1 2.99842 2.99983 7.77766 
21 1 3.71274 3.69925 7.06812 
31 1 0.668093 0.684512 10.1013 
32 1 2.18893 2.18868 8.58431 
33 1 1.47821 1.4915 9.29867 
16 1 4.55654 6.21631 4.5439 
17 1 3.11428 7.70245 2.85766 
18 1 3.77682 7.02304 3.6178 
25 1 0.698177 10.086 0.603855 
26 1 2.06992 8.65654 2.42008 
27 1 1.50996 9.28397 1.38537 
49 2 1.63097 8.86581 3.44087 
4 1 4.60844 6.16579 6.1784 
5 1 3.09176 7.68011 7.68994 
6 1 3.79991 6.97011 6.98538 
37 1 0.715029 10.0627 9.95965 
38 1 2.27391 8.49404 8.49513 
39 1 1.55343 9.21902 9.16625 
13 1 6.24314 4.53112 4.53846 
14 1 7.7775 3.00051 2.99821 
15 1 7.06982 3.70291 3.70935 
28 1 10.104 0.662869 0.685705 
29 1 8.58697 2.18584 2.18922 
30 1 9.29563 1.48122 1.48084 
1 1 6.17932 4.59552 6.17455 
2 1 7.68952 3.08283 7.68558 
3 1 6.9767 3.79031 6.98249 
40 1 10.0225 0.746949 10.0335 
41 1 8.49487 2.27212 8.49311 
42 1 9.20236 1.56909 9.20781 
7 1 6.18654 6.17162 4.60457 
8 1 7.69464 7.68872 3.08504 
9 1 6.98969 6.97643 3.79003 
43 1 10.0113 10.0499 0.72206 
44 1 8.50191 8.50373 2.26338 
45 1 9.19386 9.22149 1.55388 
22 1 6.24751 6.23142 6.2422 
23 1 7.77757 7.77457 7.77421 
24 1 7.07222 7.06518 7.07019 
34 1 10.0831 10.1098 10.1085 
35 1 8.58027 8.59039 8.58722 
36 1 9.2929 9.291 9.2962 
ITEM: TIMESTEP
60
ITEM: NUMBER OF ATOMS
49
ITEM: BOX BOUNDS pp pp pp
0.0000000000000000e+00 1.1000000000000000e+01
0.0000000000000000e+00 1.1002000000000001e+01
0.0000000000000000e+00 1.1000000000000000e+01
ITEM: ATOMS id type x y z 
10 1 4.60193 4.58893 4.6016 
11 1 3.08454 3.07566 3.08495 
12 1 3.79264 3.78235 3.79267 
46 1 0.724532 0.764876 0.719114 
47 1 2.26599 2.2697 2.26626 
48 1 1.55303 1.57616 1.55206 
19 1 4.54167 4.52781 6.24029 
20 1 3.00202 2.99959 7.775 
21 1 3.711 3.7033 7.06864 
31 1 0.666766 0.688087 10.1029 
32 1 2.18838 2.1907 8.58722 
33 1 1.47699 1.48798 9.29509 
16 1 4.5561 6.21782 4.5388 
17 1 3.11472 7.70271 2.85451 
18 1 3.77848 7.02226 3.61205 
25 1 0.702971 10.0818 0.604151 
26 1 2.06342 8.65988 2.43371 
27 1 1.51069 9.28212 1.39278 
49 2 1.63026 8.86409 3.4574 
4 1 4.60715 6.16693 6.17431 
5 1 3.09276 7.67745 7.69089 
6 1 3.8007 6.97166 6.98136 
37 1 0.714696 10.062 9.95638 
38 1 2.2743 8.49383 8.49172 
39 1 1.55373 9.21916 9.16691 
13 1 6.24275 4.53016 4.53771 
14 1 7.77654 2.99967 2.99945 
15 1 7.07013 3.70539 3.7083 
28 1 10.1055 0.663606 0.683413 
29 1 8.58753 2.18811 2.18674 
30 1 9.29588 1.47609 1.48551 
1 1 6.1777 4.59608 6.17547 
2 1 7.68709 3.08272 7.68656 
3 1 6.97998 3.79149 6.97892 
40 1 10.0232 0.746294 10.036 
41 1 8.49612 2.27144 8.49428 
42 1 9.20163 1.56907 9.20819 
7 1 6.18412 6.17079 4.60225 
8 1 7.69541 7.68767 3.08259 
9 1 6.99022 6.98014 3.79236 
43 1 10.0131 10.049 0.722737 
44 1 8.50078 8.50671 2.26296 
45 1 9.19903 9.21918 1.55216 
22 1 6.24556 6.23302 6.24111 
23 1 7.77633 7.77376 7.77403 
24 1 7.07151 7.06374 7.06787 
34 1 10.0855 10.1072 10.1079 
35 1 8.58389 8.5876 8.58733 
36 1 9.28608 9.29721 9.2974 
ITEM: TIMESTEP
70
ITEM: NUMBER OF ATOMS
49
ITEM: BOX BOUNDS pp pp pp
0.0000000000000000e+00 1.1000000000000000e+01
0.0000000000000000e+00 1.1002000000000001e+01
0.0000000000000000e+00 1.1000000000000000e+01
ITEM: ATOMS id type x y z 
10 1 4.60168 4.5896 4.60056 
11 1 3.08426 3.07534 3.08496 
12 1 3.79255 3.78244 3.79218 
46 1 0.725109 0.763608 0.71915 
47 1 2.26532 2.27035 2.26608 
48 1 1.55386 1.57461 1.55182 
19 1 4.54109 4.52876 6.23957 
20 1 3.00231 2.9995 7.77522 
21 1 3.71114 3.70383 7.0678 
31 1 0.666225 0.687771 10.1026 
32 1 2.18832 2.19087 8.58699 
33 1 1.47703 1.48859 9.29545 
16 1 4.55598 6.21857 4.53632 
17 1 3.11469 7.70321 2.85294 
18 1 3.77879 7.02217 3.60839 
25 1 0.705368 10.0797 0.603594 
26 1 2.06044 8.66131 2.44066 
27 1 1.51051 9.28142 1.39698 
49 2 1.62973 8.86334 3.4659 
4 1 4.60668 6.16793 6.17198 
5 1 3.09316 7.67703 7.69073 
6 1 3.80075 6.97146 6.98079 
37 1 0.714778 10.0621 9.95553 
38 1 2.27389 8.49455 8.49075 
39 1 1.55391 9.21866 9.16681 
13 1 6.24263 4.53061 4.53755 
14 1 7.77659 2.99991 2.99956 
15 1 7.06967 3.70524 3.70829 
28 1 10.106 0.662606 0.68405 
29 1 8.58758 2.18768 2.18681 
30 1 9.29638 1.47624 1.48551 
1 1 6.1776 4.59668 6.17485 
2 1 7.68693 3.08276 7.68637 
3 1 6.98 3.7917 6.97862 
40 1 10.0233 0.746957 10.0375 
41 1 8.49613 2.27235 8.49514 
42 1 9.20154 1.56743 9.20726 
7 1 6.18385 6.17122 4.60176 
8 1 7.69583 7.68818 3.0825 
9 1 6.99034 6.98024 3.79146 
43 1 10.0151 10.0482 0.722865 
44 1 8.50101 8.50758 2.26268 
45 1 9.20007 9.21874 1.55163 
22 1 6.24491 6.23329 6.24027 
23 1 7.77614 7.77295 7.77373 
24 1 7.0708 7.06399 7.06741 
34 1 10.0859 10.1071 10.1075 
35 1 8.58381 8.58758 8.58702 
36 1 9.28525 9.29711 9.29791 
ITEM: TIMESTEP
80
ITEM: NUMBER OF ATOMS
49
ITEM: BOX BOUNDS pp pp pp
0.0000000000000000e+00 1.1000000000000000e+01
0.0000000000000000e+00 1.1002000000000001e+01
0.0000000000000000e+00 1.1000000000000000e+01
ITEM: ATOMS id type x y z 
10 1 4.60125 4.59026 4.59978 
11 1 3.08391 3.07481 3.08503 
12 1 3.79224 3.78281 3.79126 
46 1 0.726322 0.761374 0.718937 
47 1 2.26483 2.27023 2.26553 
48 1 1.55387 1.57378 1.55166 
19 1 4.54055 4.52997 6.23833 
20 1 3.003 2.99971 7.77491 
21 1 3.7112 3.70458 7.06715 
31 1 0.665914 0.687792 10.1026 
32 1 2.18848 2.19132 8.58709 
33 1 1.47682 1.48906 9.29512 
16 1 4.55593 6.21911 4.5334 
17 1 3.11406 7.70404 2.85076 
18 1 3.77969 7.02216 3.60392 
25 1 0.708464 10.0772 0.603373 
26 1 2.05693 8.66287 2.44965 
27 1 1.50967 9.28103 1.4024 
49 2 1.62896 8.86253 3.47652 
4 1 4.60588 6.16872 6.1691 
5 1 3.09353 7.67657 7.69059 
6 1 3.80077 6.97138 6.97992 
37 1 0.714963 10.0621 9.95488 
38 1 2.27387 8.49493 8.48941 
39 1 1.55391 9.2183 9.16627 
13 1 6.24238 4.53092 4.53733 
14 1 7.77652 2.99997 2.9996 
15 1 7.06964 3.70523 3.70805 
28 1 10.1072 0.661741 0.68475 
29 1 8.58791 2.18763 2.18671 
30 1 9.29654 1.47544 1.48604 
1 1 6.17721 4.59729 6.17432 
2 1 7.68689 3.08303 7.68602 
3 1 6.97966 3.79173 6.97842 
40 1 10.0233 0.746772 10.0384 
41 1 8.49611 2.27222 8.4952 
42 1 9.20144 1.5677 9.20796 
7 1 6.18343 6.17168 4.60059 
8 1 7.69627 7.6886 3.08194 
9 1 6.99069 6.98092 3.79105 
43 1 10.0178 10.047 0.722718 
44 1 8.50124 8.50839 2.26223 
45 1 9.20151 9.21852 1.5513 
22 1 6.244 6.23373 6.23924 
23 1 7.7759 7.77228 7.77356 
24 1 7.07021 7.06404 7.06674 
34 1 10.086 10.107 10.1075 
35 1 8.58333 8.58748 8.58699 
36 1 9.28479 9.29698 9.29779 
ITEM: TIMESTEP
90
ITEM: NUMBER OF ATOMS
49
ITEM: BOX BOUNDS pp pp pp
0.0000000000000000e+00 1.1000000000000000e+01
0.0000000000000000e+00 1.1002000000000001e+01
0.0000000000000000e+00 1.1000000000000000e+01
ITEM: ATOMS id type x y z 
10 1 4.60062 4.59181 4.59828 
11 1 3.08329 3.07469 3.08466 
12 1 3.792 3.78232 3.79077 
46 1 0.727959 0.758511 0.718551 
47 1 2.2644 2.27011 2.26485 
48 1 1.55374 1.57256 1.55155 
19 1 4.53975 4.5315 6.23663 
20 1 3.00395 3.00021 7.77438 
21 1 3.7113 3.70536 7.06637 
31 1 0.665299 0.687818 10.1022 
32 1 2.18843 2.19206 8.58707 
33 1 1.47709 1.48952 9.29494 
16 1 4.55613 6.21959 4.52964 
17 1 3.11309 7.70525 2.84799 
18 1 3.78129 7.02173 3.59817 
25 1 0.712537 10.0738 0.603171 
26 1 2.05233 8.66482 2.46175 
27 1 1.50821 9.28081 1.41022 
49 2 1.62774 8.86164 3.49054 
4 1 4.60466 6.16957 6.1653 
5 1 3.09398 7.67575 7.6906 
6 1 3.80076 6.97187 6.97813 
37 1 0.71518 10.0619 9.9543 
38 1 2.27379 8.49518 8.48769 
39 1 1.55394 9.21836 9.16545 
13 1 6.242 4.53125 4.53698 
14 1 7.77643 2.99985 2.99953 
15 1 7.06977 3.70533 3.70779 
28 1 10.1085 0.660402 0.685753 
29 1 8.58821 2.18709 2.18667 
30 1 9.29729 1.475 1.48647 
1 1 6.17638 4.59773 6.17375 
2 1 7.68655 3.0831 7.68565 
3 1 6.97981 3.7922 6.97808 
40 1 10.0231 0.746374 10.0396 
41 1 8.49605 2.27187 8.49548 
42 1 9.20146 1.5683 9.20874 
7 1 6.18256 6.17262 4.59905 
8 1 7.69664 7.68961 3.08146 
9 1 6.99146 6.98103 3.79002 
43 1 10.021 10.0457 0.722454 
44 1 8.50174 8.50952 2.26155 
45 1 9.20341 9.21811 1.55088 
22 1 6.2428 6.23454 6.2377 
23 1 7.77539 7.77162 7.77317 
24 1 7.06976 7.06388 7.06624 
34 1 10.0862 10.1069 10.1074 
35 1 8.58253 8.58718 8.58726 
36 1 9.28452 9.29705 9.29715 
ITEM: TIMESTEP
100
ITEM: NUMBER OF ATOMS
49
ITEM: BOX BOUNDS pp pp pp
0.0000000000000000e+00 1.1000000000000000e+01
0.0000000000000000e+00 1.1002000000000001e+01
0.0000000000000000e+00 1.1000000000000000e+01
ITEM: ATOMS id type x y z 
10 1 4.59643 4.6043 4.58184 
11 1 3.07764 3.06995 3.08152 
12 1 3.78597 3.78466 3.78058 
46 1 0.742433 0.728158 0.715156 
47 1 2.25519 2.26801 2.26066 
48 1 1.56097 1.55743 1.54444 
19 1 4.53244 4.54696 6.2181 
20 1 3.01374 3.00545 7.77113 
21 1 3.70966 3.71402 7.05512 
31 1 0.660447 0.686154 10.0967 
32 1 2.19007 2.20085 8.58782 
33 1 1.47742 1.49446 9.2899 
16 1 4.55972 6.22344 4.48853 
17 1 3.10119 7.71864 2.82422 
18 1 3.79818 7.01803 3.53028 
25 1 0.756474 10.0365 0.605817 
26 1 2.00631 8.68185 2.59695 
27 1 1.48662 9.2827 1.50774 
49 2 1.61052 8.85572 3.64247 
4 1 4.59561 6.18029 6.12496 
5 1 3.10156 7.66788 7.69217 
6 1 3.79175 6.97859 6.95042 
37 1 0.719855 10.0559 9.95787 
38 1 2.27254 8.49374 8.47726 
39 1 1.55376 9.22886 9.1424 
13 1 6.24143 4.5353 4.53398 
14 1 7.77951 2.99993 2.99883 
15 1 7.06478 3.70146 3.70235 
28 1 10.1238 0.647145 0.694278 
29 1 8.59332 2.18198 2.18616 
30 1 9.30512 1.46634 1.4926 
1 1 6.16975 4.60415 6.16732 
2 1 7.68559 3.08532 7.68157 
3 1 6.97801 3.79415 6.97538 
40 1 10.0259 0.748134 10.0555 
41 1 8.49894 2.27701 8.50273 
42 1 9.19283 1.55903 9.21126 
7 1 6.18145 6.17376 4.58462 
8 1 7.71126 7.69323 3.07626 
9 1 6.98093 6.99923 3.77305 
43 1 10.0578 10.0262 0.714 
44 1 8.51254 8.51171 2.25182 
45 1 9.21744 9.23006 1.55348 
22 1 6.2307 6.24145 6.22119 
23 1 7.76954 7.76366 7.76988 
24 1 7.06212 7.06389 7.05762 
34 1 10.0913 10.1074 10.1018 
35 1 8.57473 8.58458 8.58836 
36 1 9.27968 9.2955 9.2939 
ITEM: TIMESTEP
110
ITEM: NUMBER OF ATOMS
49
ITEM: BOX BOUNDS pp pp pp
0.0000000000000000e+00 1.1000000000000000e+01
0.0000000000000000e+00 1.1002000000000001e+01
0.0000000000000000e+00 1.1000000000000000e+01
ITEM: ATOMS id type x y z 
10 1 4.59817 4.60133 4.58055 
11 1 3.0761 3.07099 3.0804 
12 1 3.78614 3.78364 3.77947 
46 1 0.745458 0.727355 0.713278 
47 1 2.25657 2.26624 2.2595 
48 1 1.55906 1.55621 1.54539 
19 1 4.53227 4.54689 6.21668 
20 1 3.01271 3.00705 7.76924 
21 1 3.71149 3.71492 7.05625 
31 1 0.661802 0.683966 10.0956 
32 1 2.19044 2.2014 8.58733 
33 1 1.47856 1.49498 9.28951 
16 1 4.55931 6.22473 4.48559 
17 1 3.0989 7.72016 2.82596 
18 1 3.79936 7.01757 3.52669 
25 1 0.757354 10.0353 0.613838 
26 1 2.00661 8.68055 2.60323 
27 1 1.47922 9.28682 1.5203 
49 2 1.60572 8.85994 3.64287 
4 1 4.59359 6.18267 6.12223 
5 1 3.09778 7.67006 7.68529 
6 1 3.79643 6.97528 6.95636 
37 1 0.721244 10.0587 9.95612 
38 1 2.27254 8.49782 8.47357 
39 1 1.55341 9.22411 9.14869 
13 1 6.24006 4.53353 4.53373 
14 1 7.77648 2.99827 2.99803 
15 1 7.0693 3.70442 3.70422 
28 1 10.1246 0.646794 0.693562 
29 1 8.59437 2.18028 2.18706 
30 1 9.30638 1.46696 1.4925 
1 1 6.16922 4.60487 6.16612 
2 1 7.68543 3.08633 7.68183 
3 1 6.97774 3.79426 6.97532 
40 1 10.0234 0.743281 10.0515 
41 1 8.49564 2.27215 8.50141 
42 1 9.19787 1.56746 9.2153 
7 1 6.17883 6.17698 4.58202 
8 1 7.70338 7.69799 3.07332 
9 1 6.99296 6.98937 3.77635 
43 1 10.0565 10.031 0.71657 
44 1 8.51295 8.51727 2.25592 
45 1 9.2227 9.22008 1.54704 
22 1 6.2302 6.24001 6.2194 
23 1 7.76807 7.76344 7.76937 
24 1 7.06065 7.06352 7.05679 
34 1 10.0935 10.1076 10.0999 
35 1 8.57352 8.58502 8.58862 
36 1 9.281 9.2935 9.29218 
ITEM: TIMESTEP
120
ITEM: NUMBER OF ATOMS
49
ITEM: BOX BOUNDS pp pp pp
0.0000000000000000e+00 1.1000000000000000e+01
0.0000000000000000e+00 1.1002000000000001e+01
0.0000000000000000e+00 1.1000000000000000e+01
ITEM: ATOMS id type x y z 
10 1 4.59837 4.60117 4.58025 
11 1 3.07621 3.07088 3.08013 
12 1 3.78561 3.78409 3.77952 
46 1 0.745707 0.727258 0.712877 
47 1 2.25653 2.26602 2.25928 
48 1 1.55913 1.55577 1.54544 
19 1 4.53232 4.54717 6.21657 
20 1 3.01294 3.00747 7.76926 
21 1 3.71123 3.71511 7.05565 
31 1 0.66207 0.683508 10.0952 
32 1 2.19044 2.20166 8.58725 
33 1 1.47872 1.49469 9.28944 
16 1 4.55961 6.2245 4.48539 
17 1 3.09889 7.72008 2.82628 
18 1 3.79992 7.01714 3.52645 
25 1 0.757274 10.0353 0.614697 
26 1 2.00624 8.68059 2.60475 
27 1 1.47791 9.28756 1.52258 
49 2 1.60466 8.86082 3.64341 
4 1 4.5937 6.18245 6.12207 
5 1 3.09771 7.67012 7.68504 
6 1 3.79599 6.97572 6.95556 
37 1 0.72141 10.0589 9.95634 
38 1 2.27219 8.49855 8.47292 
39 1 1.55361 9.22341 9.14987 
13 1 6.24014 4.53345 4.53344 
14 1 7.77669 2.99789 2.99764 
15 1 7.06966 3.70435 3.70423 
28 1 10.1247 0.647028 0.693411 
29 1 8.59445 2.18015 2.18746 
30 1 9.30653 1.46682 1.49225 
1 1 6.16902 4.60465 6.1665 
2 1 7.68521 3.08625 7.682 
3 1 6.978 3.79448 6.97513 
40 1 10.0233 0.743065 10.0513 
41 1 8.49517 2.27189 8.50169 
42 1 9.19866 1.56802 9.21514 
7 1 6.17903 6.17703 4.58165 
8 1 7.70332 7.69807 3.0733 
9 1 6.99304 6.98929 3.77616 
43 1 10.0564 10.0313 0.716741 
44 1 8.5126 8.51805 2.25635 
45 1 9.2238 9.21834 1.54634 
22 1 6.22989 6.24027 6.21909 
23 1 7.76764 7.76352 7.76927 
24 1 7.06072 7.06336 7.05669 
34 1 10.0941 10.1073 10.0994 
35 1 8.57315 8.58468 8.58849 
36 1 9.2814 9.29372 9.2921 
ITEM: TIMESTEP
130
ITEM: NUMBER OF ATOMS
49
ITEM: BOX BOUNDS pp pp pp
0.0000000000000000e+00 1.1000000000000000e+01
0.0000000000000000e+00 1.1002000000000001e+01
0.0000000000000000e+00 1.1000000000000000e+01
ITEM: ATOMS id type x y z 
10 1 4.59838 4.60113 4.58023 
11 1 3.07614 3.07089 3.08016 
12 1 3.78568 3.78412 3.77938 
46 1 0.745755 0.727225 0.71282 
47 1 2.25654 2.26597 2.25926 
48 1 1.55914 1.55572 1.54543 
19 1 4.5323 4.5472 6.21652 
20 1 3.01293 3.00752 7.76924 
21 1 3.71123 3.71513 7.05563 
31 1 0.662109 0.683459 10.0951 
32 1 2.19044 2.20169 8.58723 
33 1 1.47876 1.49468 9.28943 
16 1 4.55966 6.22446 4.48533 
17 1 3.09887 7.72008 2.82634 
18 1 3.79999 7.01709 3.52636 
25 1 0.757235 10.0353 0.614901 
26 1 2.00618 8.6806 2.60504 
27 1 1.47766 9.2877 1.52302 
49 2 1.60445 8.86099 3.64353 
4 1 4.59369 6.18247 6.12203 
5 1 3.09766 7.67016 7.68495 
6 1 3.79595 6.97576 6.95548 
37 1 0.721452 10.0589 9.95638 
38 1 2.27216 8.49864 8.47277 
39 1 1.55366 9.22329 9.15009 
13 1 6.24016 4.53344 4.5334 
14 1 7.77669 2.99787 2.99762 
15 1 7.06971 3.70435 3.70423 
28 1 10.1248 0.647073 0.693361 
29 1 8.5945 2.18012 2.1875 
30 1 9.30652 1.46678 1.49224 
1 1 6.16903 4.60463 6.16649 
2 1 7.68519 3.08625 7.68202 
3 1 6.978 3.79448 6.97513 
40 1 10.0233 0.743066 10.0513 
41 1 8.49515 2.27189 8.50174 
42 1 9.19871 1.56803 9.21513 
7 1 6.17909 6.17696 4.58158 
8 1 7.70333 7.69809 3.07329 
9 1 6.99304 6.98931 3.77614 
43 1 10.0564 10.0314 0.716747 
44 1 8.51254 8.5182 2.25638 
45 1 9.22404 9.21803 1.54623 
22 1 6.22986 6.2403 6.21903 
23 1 7.76758 7.76353 7.76925 
24 1 7.0607 7.06335 7.05668 
34 1 10.0941 10.1073 10.0993 
35 1 8.5731 8.58467 8.58851 
36 1 9.28148 9.29368 9.29204 
ITEM: TIMESTEP
140
ITEM: NUMBER OF ATOMS
49
ITEM: BOX BOUNDS pp pp pp
0.0000000000000000e+00 1.1000000000000000e+01
0.0000000000000000e+00 1.1002000000000001e+01
0.0000000000000000e+00 1.1000000000000000e+01
ITEM: ATOMS id type x y z 
10 1 4.5989 4.60071 4.57912 
11 1 3.07547 3.07127 3.0796 
12 1 3.78564 3.78415 3.77855 
46 1 0.746593 0.726505 0.711892 
47 1 2.25664 2.26503 2.25909 
48 1 1.55955 1.55482 1.5449 
19 1 4.53212 4.5477 6.21551 
20 1 3.01279 3.00856 7.76886 
21 1 3.7111 3.71597 7.05514 
31 1 0.663051 0.682451 10.0936 
32 1 2.19067 2.20233 8.58712 
33 1 1.47919 1.49437 9.28854 
16 1 4.56057 6.22378 4.48428 
17 1 3.09831 7.72027 2.82734 
18 1 3.80139 7.01612 3.52466 
25 1 0.756382 10.0355 0.618824 
26 1 2.00481 8.68071 2.61081 
27 1 1.47297 9.2903 1.53149 
49 2 1.60031 8.86429 3.64612 
4 1 4.59357 6.18264 6.12118 
5 1 3.09671 7.67106 7.68299 
6 1 3.79531 6.97648 6.95399 
37 1 0.722236 10.0586 9.95737 
38 1 2.2713 8.50052 8.47005 
39 1 1.55484 9.22095 9.15421 
13 1 6.24086 4.53319 4.53293 
14 1 7.77713 2.9974 2.99727 
15 1 7.07018 3.70391 3.70386 
28 1 10.1249 0.64754 0.692281 
29 1 8.59512 2.17925 2.18815 
30 1 9.30711 1.46642 1.49226 
1 1 6.16914 4.6045 6.16655 
2 1 7.68498 3.08627 7.68242 
3 1 6.97789 3.79436 6.97525 
40 1 10.0242 0.743012 10.0505 
41 1 8.49495 2.27205 8.50246 
42 1 9.19902 1.56807 9.21518 
7 1 6.18035 6.17611 4.58055 
8 1 7.7035 7.69876 3.07307 
9 1 6.9932 6.98939 3.77528 
43 1 10.0565 10.0314 0.716223 
44 1 8.51228 8.51983 2.25668 
45 1 9.22718 9.21438 1.54479 
22 1 6.22941 6.24063 6.21799 
23 1 7.76653 7.76356 7.76906 
24 1 7.06008 7.06355 7.05618 
34 1 10.0955 10.1068 10.098 
35 1 8.5727 8.58436 8.58849 
36 1 9.28177 9.29323 9.29146 
ITEM: TIMESTEP
150
ITEM: NUMBER OF ATOMS
49
ITEM: BOX BOUNDS pp pp pp
0.0000000000000000e+00 1.1000000000000000e+01
0.0000000000000000e+00 1.1002000000000001e+01
0.0000000000000000e+00 1.1000000000000000e+01
ITEM: ATOMS id type x y z 
10 1 4.5992 4.60052 4.57863 
11 1 3.07523 3.07133 3.07928 
12 1 3.78544 3.78422 3.77818 
46 1 0.746831 0.726293 0.711492 
47 1 2.2568 2.26463 2.25897 
48 1 1.55961 1.55453 1.54482 
19 1 4.53219 4.54786 6.21517 
20 1 3.0127 3.00906 7.76882 
21 1 3.71098 3.71624 7.05474 
31 1 0.663371 0.681965 10.0929 
32 1 2.19085 2.20261 8.58687 
33 1 1.47949 1.49446 9.28825 
16 1 4.56088 6.22358 4.48379 
17 1 3.09811 7.72032 2.82781 
18 1 3.80178 7.0159 3.52369 
25 1 0.756064 10.0355 0.620583 
26 1 2.00395 8.68093 2.61356 
27 1 1.47117 9.29126 1.53513 
49 2 1.5984 8.86577 3.64772 
4 1 4.59348 6.18284 6.12072 
5 1 3.09623 7.67157 7.6819 
6 1 3.79502 6.97676 6.9533 
37 1 0.722656 10.0579 9.95791 
38 1 2.27082 8.50112 8.46899 
39 1 1.55566 9.22026 9.15585 
13 1 6.24118 4.53294 4.53283 
14 1 7.77734 2.99715 2.9971 
15 1 7.07048 3.70369 3.70372 
28 1 10.1251 0.647556 0.691731 
29 1 8.59554 2.17877 2.18844 
30 1 9.30736 1.4662 1.492 
1 1 6.1691 4.60453 6.16644 
2 1 7.68486 3.08621 7.68257 
3 1 6.97786 3.79444 6.97543 
40 1 10.0246 0.742801 10.0503 
41 1 8.49485 2.27216 8.50274 
42 1 9.19911 1.56808 9.2152 
7 1 6.1806 6.17583 4.58006 
8 1 7.70339 7.69923 3.07276 
9 1 6.99372 6.98934 3.77513 
43 1 10.0578 10.0298 0.715269 
44 1 8.51368 8.51834 2.25622 
45 1 9.22582 9.21672 1.54525 
22 1 6.22931 6.24062 6.21764 
23 1 7.76613 7.76368 7.7691 
24 1 7.05976 7.06362 7.05586 
34 1 10.096 10.1066 10.0975 
35 1 8.57253 8.5842 8.58851 
36 1 9.28192 9.29306 9.29113 
ITEM: TIMESTEP
160
ITEM: NUMBER OF ATOMS
49
ITEM: BOX BOUNDS pp pp pp
0.0000000000000000e+00 1.1000000000000000e+01
0.0000000000000000e+00 1.1002000000000001e+01
0.0000000000000000e+00 1.1000000000000000e+01
ITEM: ATOMS id type x y z 
10 1 4.59928 4.6005 4.57841 
11 1 3.0751 3.07141 3.07917 
12 1 3.78547 3.7842 3.77801 
46 1 0.746755 0.726262 0.711425 
47 1 2.25673 2.2645 2.25908 
48 1 1.55994 1.55435 1.54452 
19 1 4.53218 4.54791 6.21498 
20 1 3.01266 3.00929 7.76874 
21 1 3.71097 3.7164 7.05465 
31 1 0.663573 0.681655 10.0926 
32 1 2.1909 2.20269 8.58677 
33 1 1.47959 1.49449 9.28817 
16 1 4.56104 6.22346 4.48357 
17 1 3.09796 7.7204 2.82797 
18 1 3.80199 7.01576 3.52332 
25 1 0.756025 10.0354 0.621265 
26 1 2.00354 8.68105 2.61481 
27 1 1.47044 9.29164 1.53671 
49 2 1.59754 8.86642 3.64848 
4 1 4.59344 6.18291 6.12052 
5 1 3.09605 7.6718 7.68146 
6 1 3.79484 6.97696 6.9529 
37 1 0.722922 10.0577 9.95823 
38 1 2.27061 8.50133 8.46865 
39 1 1.55593 9.22 9.15644 
13 1 6.2413 4.53283 4.5328 
14 1 7.77746 2.99699 2.99701 
15 1 7.07058 3.70364 3.70367 
28 1 10.1252 0.647568 0.691467 
29 1 8.59575 2.17853 2.18849 
30 1 9.3075 1.46606 1.49195 
1 1 6.16912 4.60455 6.16643 
2 1 7.6848 3.08626 7.68267 
3 1 6.97782 3.7944 6.9754 
40 1 10.0248 0.742744 10.0502 
41 1 8.49479 2.27219 8.50287 
42 1 9.19919 1.56811 9.2152 
7 1 6.18075 6.17569 4.57983 
8 1 7.7034 7.69932 3.07268 
9 1 6.99381 6.98938 3.77506 
43 1 10.0576 10.0301 0.715272 
44 1 8.51358 8.51877 2.25629 
45 1 9.22656 9.21583 1.54488 
22 1 6.22929 6.24065 6.21745 
23 1 7.76593 7.76372 7.76902 
24 1 7.05963 7.06363 7.05586 
34 1 10.0963 10.1064 10.0971 
35 1 8.57247 8.58415 8.58845 
36 1 9.28194 9.29293 9.29108 
ITEM: TIMESTEP
170
ITEM: NUMBER OF ATOMS
49
ITEM: BOX BOUNDS pp pp pp
0.0000000000000000e+00 1.1000000000000000e+01
0.0000000000000000e+00 1.1002000000000001e+01
0.0000000000000000e+00 1.1000000000000000e+01
ITEM: ATOMS id type x y z 
10 1 4.59928 4.60051 4.57836 
11 1 3.07505 3.07145 3.07915 
12 1 3.78551 3.78416 3.77796 
46 1 0.746838 0.726224 0.711338 
47 1 2.25681 2.26443 2.25901 
48 1 1.55982 1.55436 1.54459 
19 1 4.53218 4.54793 6.21493 
20 1 3.01264 3.00935 7.76872 
21 1 3.71098 3.71644 7.05462 
31 1 0.663614 0.681639 10.0926 
32 1 2.19091 2.20276 8.5868 
33 1 1.47963 1.4944 9.28805 
16 1 4.56108 6.22344 4.48351 
17 1 3.09792 7.72041 2.82801 
18 1 3.80203 7.01574 3.52322 
25 1 0.756012 10.0354 0.621448 
26 1 2.00344 8.68107 2.61513 
27 1 1.47026 9.29174 1.5371 
49 2 1.59733 8.86658 3.64868 
4 1 4.59343 6.18293 6.12044 
5 1 3.09598 7.67187 7.68131 
6 1 3.79483 6.97698 6.95286 
37 1 0.723014 10.0576 9.95839 
38 1 2.2706 8.50133 8.46863 
39 1 1.55593 9.22001 9.15645 
13 1 6.24132 4.53279 4.53279 
14 1 7.77745 2.99696 2.99701 
15 1 7.07066 3.70362 3.70364 
28 1 10.1252 0.647561 0.691429 
29 1 8.59581 2.17847 2.18855 
30 1 9.30751 1.46605 1.49188 
1 1 6.16911 4.60455 6.16641 
2 1 7.68478 3.08625 7.68267 
3 1 6.97782 3.79443 6.97544 
40 1 10.0248 0.742737 10.0501 
41 1 8.49479 2.27221 8.5029 
42 1 9.19918 1.56809 9.2152 
7 1 6.18077 6.17569 4.57979 
8 1 7.70339 7.69937 3.07267 
9 1 6.99386 6.98934 3.77502 
43 1 10.0577 10.0299 0.715187 
44 1 8.51375 8.51858 2.25623 
45 1 9.22637 9.21615 1.54495 