LAMMPS (3 Mar 2020)
Reading data file ...
  orthogonal box = (0 0 0) to (11 11.002 11)
  2 by 2 by 2 MPI processor grid
  reading atoms ...
  49 atoms
  read_data CPU = 0.00335576 secs
WARNING: Changed valency_val to valency_boc for X (../reaxc_ffield.cpp:315)
WARNING: Using 'neigh_modify every 1 delay 0 check yes' setting during minimization (../min.cpp:190)
Neighbor list info ...
  update every 1 steps, delay 0 steps, check yes
  max neighbors/atom: 2000, page size: 100000
  master list distance cutoff = 12
  ghost atom cutoff = 12
  binsize = 6, bins = 2 2 2
  2 neighbor lists, perpetual/occasional/extra = 2 0 0
  (1) pair reax/c, perpetual
      attributes: half, newton off, ghost
      pair build: half/bin/newtoff/ghost
      stencil: half/ghost/bin/3d/newtoff
      bin: standard
  (2) fix qeq/reax, perpetual, copy from (1)
      attributes: half, newton off, ghost
      pair build: copy
      stencil: none
      bin: none
Setting up cg style minimization ...
  Unit style    : real
  Current step  : 0
Per MPI rank memory allocation (min/avg/max) = 24.63 | 24.76 | 24.96 Mbytes
Step Temp E_pair E_mol TotEng Press 
       0            0   -8585.4974            0   -8585.4974    133730.24 
     181            0   -8760.3442            0   -8760.3442    26430.746 
Loop time of 7.79824 on 8 procs for 181 steps with 49 atoms

99.0% CPU use with 8 MPI tasks x no OpenMP threads

Minimization stats:
  Stopping criterion = energy tolerance
  Energy initial, next-to-last, final = 
        -8585.49744878     -8760.34413679     -8760.34419999
  Force two-norm initial, final = 1288.07 53.9915
  Force max component initial, final = 383.159 12.3596
  Final line search alpha, max atom move = 3.94227e-08 4.87247e-07
  Iterations, force evaluations = 181 1610

MPI task timing breakdown:
Section |  min time  |  avg time  |  max time  |%varavg| %total
---------------------------------------------------------------
Pair    | 6.5772     | 6.6356     | 6.7602     |   2.1 | 85.09
Neigh   | 0          | 0          | 0          |   0.0 |  0.00
Comm    | 0.080465   | 0.20488    | 0.2632     |  12.0 |  2.63
Output  | 0.00044499 | 0.00064835 | 0.0012602  |   0.0 |  0.01
Modify  | 0.94121    | 0.9422     | 0.94395    |   0.1 | 12.08
Other   |            | 0.01495    |            |       |  0.19

Nlocal:    6.125 ave 7 max 6 min
Histogram: 7 0 0 0 0 0 0 0 0 1
Nghost:    941.5 ave 952 max 934 min
Histogram: 1 0 3 0 0 3 0 0 0 1
Neighs:    1689.75 ave 1910 max 1655 min
Histogram: 7 0 0 0 0 0 0 0 0 1

Total # of neighbors = 13518
Ave neighs/atom = 275.878
Neighbor list builds = 0
Dangerous builds = 0
WARNING: Using 'neigh_modify every 1 delay 0 check yes' setting during minimization (../min.cpp:190)
Setting up cg style minimization ...
  Unit style    : real
  Current step  : 181
Per MPI rank memory allocation (min/avg/max) = 24.63 | 24.76 | 24.96 Mbytes
Step Temp E_pair E_mol TotEng Press 
     181            0   -8760.3442            0   -8760.3442    26430.747 
     183            0   -8760.3443            0   -8760.3443    26430.809 
Loop time of 0.189231 on 8 procs for 2 steps with 49 atoms

99.3% CPU use with 8 MPI tasks x no OpenMP threads

Minimization stats:
  Stopping criterion = energy tolerance
  Energy initial, next-to-last, final = 
        -8760.34419976     -8760.34429325     -8760.34432243
  Force two-norm initial, final = 53.9915 51.9612
  Force max component initial, final = 12.3595 12.0896
  Final line search alpha, max atom move = 3.28126e-08 3.96691e-07
  Iterations, force evaluations = 2 40

MPI task timing breakdown:
Section |  min time  |  avg time  |  max time  |%varavg| %total
---------------------------------------------------------------
Pair    | 0.1644     | 0.16593    | 0.16883    |   0.3 | 87.69
Neigh   | 0          | 0          | 0          |   0.0 |  0.00
Comm    | 0.0019162  | 0.0048114  | 0.006332   |   1.8 |  2.54
Output  | 0          | 0          | 0          |   0.0 |  0.00
Modify  | 0.018012   | 0.018047   | 0.018099   |   0.0 |  9.54
Other   |            | 0.0004385  |            |       |  0.23

Nlocal:    6.125 ave 7 max 6 min
Histogram: 7 0 0 0 0 0 0 0 0 1
Nghost:    932.5 ave 943 max 925 min
Histogram: 1 0 3 0 0 3 0 0 0 1
Neighs:    1691.25 ave 1906 max 1654 min
Histogram: 7 0 0 0 0 0 0 0 0 1

Total # of neighbors = 13530
Ave neighs/atom = 276.122
Neighbor list builds = 0
Dangerous builds = 0
WARNING: Using 'neigh_modify every 1 delay 0 check yes' setting during minimization (../min.cpp:190)
Setting up cg style minimization ...
  Unit style    : real
  Current step  : 183
WARNING: Energy due to 3 extra global DOFs will be included in minimizer energies
Per MPI rank memory allocation (min/avg/max) = 24.63 | 24.76 | 24.96 Mbytes
Step Temp E_pair E_mol TotEng Press Volume 
     183            0   -8760.3443            0   -8760.3443    26430.804     1331.242 
     288            0   -8763.3585            0   -8763.3585    2921.6137    1342.7771 
Loop time of 0.772901 on 8 procs for 105 steps with 49 atoms

99.1% CPU use with 8 MPI tasks x no OpenMP threads

Minimization stats:
  Stopping criterion = energy tolerance
  Energy initial, next-to-last, final = 
        -8760.34432347     -8763.35837834     -8763.35845276
  Force two-norm initial, final = 890.351 108.755
  Force max component initial, final = 517.847 57.5738
  Final line search alpha, max atom move = 1.96424e-06 0.000113089
  Iterations, force evaluations = 105 169

MPI task timing breakdown:
Section |  min time  |  avg time  |  max time  |%varavg| %total
---------------------------------------------------------------
Pair    | 0.67844    | 0.68526    | 0.69683    |   0.6 | 88.66
Neigh   | 0          | 0          | 0          |   0.0 |  0.00
Comm    | 0.007757   | 0.019367   | 0.026078   |   3.7 |  2.51
Output  | 0.00020854 | 0.00028367 | 0.00055509 |   0.0 |  0.04
Modify  | 0.062845   | 0.063015   | 0.063153   |   0.0 |  8.15
Other   |            | 0.004979   |            |       |  0.64

Nlocal:    6.125 ave 7 max 6 min
Histogram: 7 0 0 0 0 0 0 0 0 1
Nghost:    932.5 ave 943 max 925 min
Histogram: 1 0 3 0 0 3 0 0 0 1
Neighs:    1691.25 ave 1906 max 1654 min
Histogram: 7 0 0 0 0 0 0 0 0 1

Total # of neighbors = 13530
Ave neighs/atom = 276.122
Neighbor list builds = 0
Dangerous builds = 0
WARNING: Using 'neigh_modify every 1 delay 0 check yes' setting during minimization (../min.cpp:190)
Setting up cg style minimization ...
  Unit style    : real
  Current step  : 288
Per MPI rank memory allocation (min/avg/max) = 24.63 | 24.76 | 24.96 Mbytes
Step Temp E_pair E_mol TotEng Press 
     288            0   -8763.3585            0   -8763.3585    2921.6183 
     300            0   -8763.3881            0   -8763.3881    1545.4474 
Loop time of 0.852623 on 8 procs for 12 steps with 49 atoms

99.2% CPU use with 8 MPI tasks x no OpenMP threads

Minimization stats:
  Stopping criterion = energy tolerance
  Energy initial, next-to-last, final = 
        -8763.35845122     -8763.38806873     -8763.38814204
  Force two-norm initial, final = 45.4193 45.2599
  Force max component initial, final = 10.0133 11.1755
  Final line search alpha, max atom move = 7.8489e-08 8.77155e-07
  Iterations, force evaluations = 12 189

MPI task timing breakdown:
Section |  min time  |  avg time  |  max time  |%varavg| %total
---------------------------------------------------------------
Pair    | 0.72458    | 0.73493    | 0.7519     |   0.9 | 86.20
Neigh   | 0          | 0          | 0          |   0.0 |  0.00
Comm    | 0.009666   | 0.026594   | 0.036882   |   4.5 |  3.12
Output  | 3.5667e-05 | 4.341e-05  | 6.6113e-05 |   0.0 |  0.01
Modify  | 0.089123   | 0.089317   | 0.089487   |   0.0 | 10.48
Other   |            | 0.001737   |            |       |  0.20

Nlocal:    6.125 ave 7 max 6 min
Histogram: 7 0 0 0 0 0 0 0 0 1
Nghost:    910 ave 925 max 898 min
Histogram: 1 2 0 1 1 0 0 2 0 1
Neighs:    1684 ave 1892 max 1647 min
Histogram: 7 0 0 0 0 0 0 0 0 1

Total # of neighbors = 13472
Ave neighs/atom = 274.939
Neighbor list builds = 0
Dangerous builds = 0
WARNING: Using 'neigh_modify every 1 delay 0 check yes' setting during minimization (../min.cpp:190)
Setting up cg style minimization ...
  Unit style    : real
  Current step  : 300
WARNING: Energy due to 3 extra global DOFs will be included in minimizer energies
Per MPI rank memory allocation (min/avg/max) = 24.63 | 24.76 | 24.96 Mbytes
Step Temp E_pair E_mol TotEng Press Volume 
     300            0   -8763.3881            0   -8763.3881     1545.447    1342.7771 
     306            0   -8763.3898            0   -8763.3898    -3.739799    1342.8676 
Loop time of 0.191347 on 8 procs for 6 steps with 49 atoms

99.3% CPU use with 8 MPI tasks x no OpenMP threads

Minimization stats:
  Stopping criterion = energy tolerance
  Energy initial, next-to-last, final = 
        -8763.38814192     -8763.38969866     -8763.38975164
  Force two-norm initial, final = 69.2556 44.2833
  Force max component initial, final = 30.3823 10.6986
  Final line search alpha, max atom move = 8.22966e-08 8.80463e-07
  Iterations, force evaluations = 6 43

MPI task timing breakdown:
Section |  min time  |  avg time  |  max time  |%varavg| %total
---------------------------------------------------------------
Pair    | 0.16722    | 0.16929    | 0.17349    |   0.4 | 88.47
Neigh   | 0          | 0          | 0          |   0.0 |  0.00
Comm    | 0.0018981  | 0.0060945  | 0.0081472  |   2.3 |  3.19
Output  | 0          | 0          | 0          |   0.0 |  0.00
Modify  | 0.014832   | 0.01488    | 0.014924   |   0.0 |  7.78
Other   |            | 0.001079   |            |       |  0.56

Nlocal:    6.125 ave 7 max 6 min
Histogram: 7 0 0 0 0 0 0 0 0 1
Nghost:    910 ave 925 max 898 min
Histogram: 1 2 0 1 1 0 0 2 0 1
Neighs:    1684 ave 1892 max 1647 min
Histogram: 7 0 0 0 0 0 0 0 0 1

Total # of neighbors = 13472
Ave neighs/atom = 274.939
Neighbor list builds = 0
Dangerous builds = 0
WARNING: Using 'neigh_modify every 1 delay 0 check yes' setting during minimization (../min.cpp:190)
Setting up cg style minimization ...
  Unit style    : real
  Current step  : 306
Per MPI rank memory allocation (min/avg/max) = 24.63 | 24.76 | 24.96 Mbytes
Step Temp E_pair E_mol TotEng Press 
     306            0   -8763.3898            0   -8763.3898   -3.7389219 
     307            0   -8763.3898            0   -8763.3898   -3.0296239 
Loop time of 0.0931643 on 8 procs for 1 steps with 49 atoms

99.0% CPU use with 8 MPI tasks x no OpenMP threads

Minimization stats:
  Stopping criterion = energy tolerance
  Energy initial, next-to-last, final = 
        -8763.38975134     -8763.38975134     -8763.38978922
  Force two-norm initial, final = 44.2795 42.9487
  Force max component initial, final = 10.6987 9.74715
  Final line search alpha, max atom move = 7.13117e-08 6.95086e-07
  Iterations, force evaluations = 1 20

MPI task timing breakdown:
Section |  min time  |  avg time  |  max time  |%varavg| %total
---------------------------------------------------------------
Pair    | 0.080079   | 0.08086    | 0.082736   |   0.3 | 86.79
Neigh   | 0          | 0          | 0          |   0.0 |  0.00
Comm    | 0.00095251 | 0.002812   | 0.0035777  |   1.4 |  3.02
Output  | 0          | 0          | 0          |   0.0 |  0.00
Modify  | 0.0092177  | 0.0092333  | 0.0092585  |   0.0 |  9.91
Other   |            | 0.0002591  |            |       |  0.28

Nlocal:    6.125 ave 7 max 6 min
Histogram: 7 0 0 0 0 0 0 0 0 1
Nghost:    910 ave 925 max 898 min
Histogram: 1 2 0 1 1 0 0 2 0 1
Neighs:    1684 ave 1892 max 1647 min
Histogram: 7 0 0 0 0 0 0 0 0 1

Total # of neighbors = 13472
Ave neighs/atom = 274.939
Neighbor list builds = 0
Dangerous builds = 0
Setting up Verlet run ...
  Unit style    : real
  Current step  : 0
  Time step     : 0.25
Per MPI rank memory allocation (min/avg/max) = 23.51 | 23.64 | 23.83 Mbytes
Step Temp TotEng KinEng PotEng Press 
       0          300   -8720.4661    42.923665   -8763.3898    1458.1257 
     200    195.27483   -8702.8239    27.939705   -8730.7636   -4977.8003 
     400    350.65161   -8675.6674    50.170841   -8725.8382    29387.972 
     600    388.74865   -8671.4929    55.621722   -8727.1146   -18976.617 
     800     277.1358    -8689.623     39.65228   -8729.2753   -13450.401 
    1000    349.12321   -8677.0224    49.952158   -8726.9746   -52583.868 
    1200    340.19647   -8673.9617    48.674931   -8722.6367   -14918.833 
    1400    274.68132   -8694.4046    39.301097   -8733.7057   -19496.999 
    1600    259.36943   -8686.2515    37.110289   -8723.3618   -48780.474 
    1800    322.21091   -8676.9909    46.101577   -8723.0925   -9414.7308 
    2000    279.46336   -8678.7025    39.985305   -8718.6878    14018.989 
    2200    315.06407   -8689.3823    45.079016   -8734.4613    9051.9348 
    2400    239.46722    -8688.748    34.262703   -8723.0107   -54439.561 
    2600    303.50307   -8674.6411     43.42488    -8718.066    9665.8141 
    2800    284.08333   -8683.6912    40.646326   -8724.3376    39145.431 
    3000    282.20864   -8689.9416    40.378097   -8730.3197   -20417.737 
    3200    372.05736   -8673.1451    53.233551   -8726.3787   -22143.888 
    3400    280.99665    -8677.503    40.204687   -8717.7077    1345.6406 
    3600    284.69489   -8691.4888    40.733826   -8732.2226    9901.0685 
    3800    358.27261    -8681.481    51.261244   -8732.7423    35916.519 
    4000     297.5265   -8670.8258    42.569759   -8713.3956   -39720.533 
    4200    349.07489   -8671.8431    49.945245   -8721.7883    8943.5376 
    4400    282.44277   -8685.4882    40.411596   -8725.8998    5725.6861 
    4600    368.88242   -8672.7561    52.779285   -8725.5354   -5342.8084 
    4800    331.82908   -8671.5424    47.477733   -8719.0201    5201.3932 
    5000    320.54791    -8682.098    45.863636   -8727.9616   -12957.421 
    5200    294.27561   -8678.5457    42.104625   -8720.6503   -37111.908 
    5400    337.86709    -8669.632    48.341645   -8717.9736    -3543.349 
    5600    368.40709   -8673.4917    52.711275    -8726.203    -14248.95 
    5800      250.367   -8691.4026    35.822231   -8727.2249    4643.0504 
    6000    298.20185   -8676.2819    42.666387   -8718.9483   -2530.9578 
    6200     300.9568   -8674.3092    43.060563   -8717.3697     -27787.6 
    6400    263.40078   -8690.3304    37.687089   -8728.0175    27565.187 
    6600    288.88665   -8689.5824    41.333579   -8730.9159   -30492.417 
    6800    348.05958    -8675.827    49.799976    -8725.627   -1373.1929 
    7000    280.63607   -8687.4858    40.153096   -8727.6389    17984.625 
    7200    281.08186   -8694.9418    40.216879   -8735.1587   -1281.3823 
    7400    340.33336    -8675.273    48.694516   -8723.9675   -15937.557 
    7600    367.23365   -8672.2012    52.543381   -8724.7446   -20062.396 
    7800    307.15476   -8687.9901     43.94736   -8731.9375    9544.9444 
    8000    343.27158   -8674.8617    49.114915   -8723.9766   -30764.253 
    8200    280.61072   -8677.5585    40.149468   -8717.7079   -18365.228 
    8400    248.84891   -8693.6559    35.605024    -8729.261    43228.008 
    8600    305.96518   -8679.1347    43.777155   -8722.9119    10497.623 
    8800    293.08332   -8674.4758    41.934034   -8716.4099   -21077.205 
    9000    281.59865   -8689.7022    40.290819    -8729.993    -14488.25 
    9200    280.92158   -8680.6486    40.193946   -8720.8425   -18512.888 
    9400    337.11343   -8677.6492    48.233813   -8725.8831    25095.094 
    9600    240.86081   -8694.6901    34.462095   -8729.1522   -17899.904 
    9800    286.03968   -8686.4543    40.926238   -8727.3806   -32607.643 
   10000    317.47543   -8672.3194     45.42403   -8717.7434   -226.97651 
   10200    282.24169   -8676.7037    40.382825   -8717.0865   -38519.835 
   10400    281.37686    -8689.285    40.259087   -8729.5441   -21016.271 
   10600    345.15626   -8671.7608    49.384571   -8721.1454    21495.841 
   10800    283.47601    -8683.211    40.559431   -8723.7705   -10523.118 
   11000    264.62193   -8686.3569    37.861809   -8724.2187     35757.81 
   11200    311.76142   -8675.6587    44.606476   -8720.2652   -17391.872 
   11400    382.24825   -8664.3616    54.691652   -8719.0532   -30859.523 
   11600    284.41335   -8685.0703    40.693545   -8725.7639   -35342.321 
   11800      324.669   -8682.3433    46.453277   -8728.7966   -22768.528 
   12000    371.01084   -8664.9883    53.083816   -8718.0722    55254.552 
   12200    329.86666   -8680.5648    47.196952   -8727.7618    16315.575 
   12400    265.07793   -8680.4135    37.927054   -8718.3406   -15581.143 
   12600    349.49124   -8668.7118    50.004816   -8718.7166    8231.9033 
   12800    241.86087   -8688.3446    34.605183   -8722.9498    17882.504 
   13000    334.11241   -8674.7906    47.804431    -8722.595   -20154.374 
   13200    272.57286   -8687.8929     38.99942   -8726.8923    31473.147 
   13400    262.40571   -8688.1018    37.544715   -8725.6465   -46925.112 
   13600    272.82773    -8681.156    39.035887   -8720.1919    49669.807 
   13800    366.62755   -8665.9542    52.456659   -8718.4108     12096.94 
   14000    310.73338   -8686.8866    44.459384    -8731.346    960.06478 
   14200    282.98089   -8677.2224     40.48859    -8717.711   -502.66984 
   14400    333.69572   -8671.6616     47.74481   -8719.4064   -10489.535 
   14600    297.43759    -8687.252    42.557039    -8729.809    35852.175 
   14800    314.57562   -8681.6179    45.009128    -8726.627   -3496.7717 
   15000    351.91544   -8670.9906    50.351668   -8721.3423     9961.442 
   15200    329.49656   -8681.2563       47.144   -8728.4003     17724.24 
   15400     257.3077   -8686.5647    36.815298     -8723.38    27719.527 
   15600    351.46681   -8668.8021    50.287479   -8719.0896   -27203.878 
   15800    270.70601   -8683.5048    38.732313   -8722.2371   -4077.9177 
   16000    289.12522   -8683.6599    41.367714   -8725.0276   -1485.7018 
   16200    294.32977   -8669.8556    42.112375    -8711.968    1851.6873 
   16400    326.01655   -8679.3129    46.646084    -8725.959   -25804.461 
   16600    290.97839   -8682.3539    41.632863   -8723.9868    25834.704 
   16800    327.91771   -8669.3207    46.918099   -8716.2388    30632.354 
   17000    296.87066   -8672.9565    42.475922   -8715.4324    40007.931 
   17200    305.66785   -8683.7501    43.734614   -8727.4847   -4049.4224 
   17400    319.53196   -8671.4698    45.718276   -8717.1881     5964.389 
   17600    282.52397   -8664.8746    40.423214   -8705.2979   -31042.637 
   17800    340.74519   -8683.0413    48.753441   -8731.7947   -7300.1051 
   18000    250.65534   -8688.4019    35.863487   -8724.2654   -20804.844 
   18200    267.42219   -8678.7894    38.262468   -8717.0518    13125.374 
   18400     345.3968   -8673.1731    49.418989   -8722.5921   -35020.649 
   18600    197.02472   -8692.4866    28.190077   -8720.6767   -9913.8262 
   18800    321.21945    -8684.514     45.95972   -8730.4737   -7119.3597 
   19000    288.09359   -8674.4769    41.220108   -8715.6971   -4718.6089 
   19200    294.91453    -8665.638    42.196041   -8707.8341   -6380.5293 
   19400    331.03923    -8679.229    47.364723   -8726.5937    9397.9641 
   19600    308.99678   -8687.3055    44.210914   -8731.5164    -48491.53 
   19800    306.01092   -8670.5518      43.7837   -8714.3355    74742.812 
   20000    337.44868   -8679.8762     48.28178    -8728.158   -285.44765 
   20200     256.3898   -8684.2969    36.683966   -8720.9808    45082.437 
   20400    334.72788   -8671.4893    47.892491   -8719.3818   -2924.1774 
   20600    285.52983   -8680.3409    40.853289   -8721.1941     -14496.5 
   20800     239.0848   -8700.7175    34.207985   -8734.9255    44091.965 
   21000    286.73199   -8687.6891    41.025293   -8728.7144   -7105.3869 
   21200     327.1524   -8673.7724      46.8086    -8720.581   -37056.956 
   21400    290.29286   -8686.4403    41.534778   -8727.9751     9030.326 
   21600    285.96744   -8684.5095    40.915902   -8725.4254   -7318.9576 
   21800     287.1605   -8674.6963    41.086604   -8715.7829    28280.081 
   22000    368.59255   -8681.2218     52.73781   -8733.9596   -9524.4345 
   22200    243.53455   -8689.0868    34.844651   -8723.9314    -1715.757 
   22400    344.41825   -8674.1732    49.278979   -8723.4522     -26853.3 
   22600    265.26689   -8683.0384    37.954091   -8720.9925   -15693.427 
   22800    253.44986   -8693.2695    36.263323   -8729.5328     3969.892 
   23000    295.43259   -8676.3732    42.270166   -8718.6434   -35935.813 
   23200    337.96467   -8677.6511    48.355608   -8726.0067    900.87629 
   23400    255.31793   -8693.5459    36.530605   -8730.0765   -5278.0353 
   23600    297.64648   -8680.5286    42.586926   -8723.1155   -16579.873 
   23800     314.9601   -8676.3856    45.064139   -8721.4498    23265.035 
   24000    295.27994   -8685.4667    42.248323    -8727.715    17549.592 
   24200    235.25635   -8688.6475    33.660215   -8722.3077   -8037.7906 
   24400    326.13772   -8675.9026     46.66342    -8722.566   -30119.124 
   24600    220.72027   -8686.8703     31.58041   -8718.4507   -4060.0943 
   24800    221.26493   -8690.8768    31.658339   -8722.5352    24196.117 
   25000    336.53645   -8675.4728    48.151259   -8723.6241   -6071.4204 
   25200     268.2194   -8688.8263    38.376533   -8727.2028    -21890.13 
   25400    268.52317   -8701.4811    38.419995   -8739.9011    11693.026 
   25600    291.51214    -8683.645    41.709231   -8725.3543   -21287.888 
   25800    318.23915   -8670.0552    45.533302   -8715.5885   -23419.541 
   26000    301.45967    -8678.307    43.132513   -8721.4395   -28670.908 
   26200    279.94852   -8681.4417    40.054721   -8721.4964    26714.633 
   26400    295.42618   -8674.0366    42.269248   -8716.3059   -43229.698 
   26600    263.94482   -8692.0873     37.76493   -8729.8522    48797.953 
   26800    289.72422   -8682.7296    41.453417    -8724.183    7571.4349 
   27000    308.40576   -8680.3148    44.126351   -8724.4412   -8585.8364 
   27200    293.54719   -8684.9869    42.000404   -8726.9873   -775.02535 
   27400    252.18687   -8690.4648    36.082615   -8726.5474   -2911.8129 
   27600    342.03565   -8674.3296    48.938078   -8723.2677    -41196.78 
   27800    284.06738   -8673.7067    40.644044   -8714.3507   -27829.064 
   28000    381.17996   -8661.7352    54.538803    -8716.274    5017.1588 
   28200      290.407   -8680.5764    41.551109   -8722.1275    16119.177 
   28400    273.70086   -8685.2387    39.160813   -8724.3995    29275.861 
   28600    283.35931   -8674.9543    40.542733   -8715.4971    985.46441 
   28800    251.97971   -8686.0002    36.052976   -8722.0532    25539.069 
   29000    309.66568   -8685.6158    44.306619   -8729.9225   -19372.438 
   29200    275.33905    -8680.136    39.395203   -8719.5312   -148.40908 
   29400    307.44143   -8678.2757    43.988376   -8722.2641   -41479.989 
   29600    270.03822   -8686.9809    38.636766   -8725.6177   -26816.156 
   29800    300.56101   -8687.5109    43.003933   -8730.5149    5465.1158 
   30000     343.9801   -8678.4287    49.216289    -8727.645   -11972.065 
   30200    269.25382   -8686.0088    38.524535   -8724.5333     32485.13 
   30400    301.63034   -8686.1739    43.156933   -8729.3308    31768.271 
   30600    400.96577   -8672.8473    57.369734   -8730.2171    17589.566 
   30800    269.80223   -8690.4617    38.603001   -8729.0647   -28714.315 
   31000    331.75055   -8683.0396    47.466498   -8730.5061    34227.493 
   31200    302.22513   -8678.7358    43.242033   -8721.9778    1339.1994 
   31400    364.78747    -8662.936    52.193384   -8715.1293     37005.15 
   31600    330.85717   -8681.4826    47.338674   -8728.8213     33401.08 
   31800    321.24832   -8682.1662     45.96385     -8728.13    6374.8538 
   32000    368.89233    -8664.582    52.780702   -8717.3627     8214.312 
   32200    292.57869   -8681.1535    41.861832   -8723.0153     32357.19 
   32400    305.63442   -8683.4765    43.729831   -8727.2063   -3589.6706 
   32600    340.98754    -8677.161    48.788116   -8725.9491   -4723.3175 
   32800     352.6793   -8673.7968    50.460959   -8724.2578    17210.898 
   33000    281.70805   -8687.3856    40.306473   -8727.6921   -10492.869 
   33200    384.42871    -8671.734     55.00363   -8726.7376    58908.411 
   33400    320.44029   -8670.7903    45.848238   -8716.6385    10388.362 
   33600    299.80506    -8688.972    42.895773   -8731.8678   -5965.3071 
   33800    313.87378   -8684.6523    44.908709    -8729.561    35053.072 
   34000    322.76148    -8676.367    46.180352   -8722.5474   -36301.242 
   34200    311.07207   -8680.3971    44.507845   -8724.9049    63011.497 
   34400      281.621    -8690.691    40.294018    -8730.985   -36750.386 
   34600    258.98634   -8692.3134    37.055477   -8729.3688   -2823.6294 
   34800    304.90131    -8675.057    43.624938   -8718.6819    26621.779 
   35000     286.5699   -8678.7985    41.002101   -8719.8006   -22128.814 
   35200    291.10471   -8690.7018    41.650937   -8732.3528    14578.691 
   35400    328.92196   -8681.3683    47.061786   -8728.4301    20308.239 
   35600    306.40411   -8675.5957    43.839958   -8719.4356    39977.431 
   35800     296.3654   -8691.6629    42.403631   -8734.0666   -29599.126 
   36000    331.79891   -8679.7939    47.473418   -8727.2673      31256.1 
   36200    274.62659   -8679.4915    39.293265   -8718.7848   -2250.2306 
   36400    234.47518   -8698.8053    33.548447   -8732.3537    11703.979 
   36600    238.30259   -8683.9016    34.096068   -8717.9977   -6075.8496 
   36800    353.72078   -8673.7133    50.609974   -8724.3233    9941.9428 
   37000    295.50685   -8688.4978     42.28079   -8730.7786   -9858.2594 
   37200    322.27167   -8682.8198     46.11027     -8728.93   -36052.879 
   37400     329.8289   -8677.2748     47.19155   -8724.4663    19033.078 
   37600    284.72381   -8686.1228    40.737965   -8726.8608   -12235.061 
   37800    248.43967   -8693.1022     35.54647   -8728.6487   -8625.6654 
   38000    328.45682   -8674.7562    46.995235   -8721.7515    48825.395 
   38200    259.30669   -8686.4175    37.101312   -8723.5188    28883.315 
   38400    323.42969   -8673.6974    46.275959   -8719.9733     2373.261 
   38600    309.45999   -8673.2892    44.277189   -8717.5664    11491.642 
   38800    288.35563    -8679.731    41.257601   -8720.9886    4542.4121 
   39000    303.99612   -8688.2054    43.495425   -8731.7008   -56291.193 
   39200    323.86003   -8678.1882    46.337531   -8724.5257    34791.883 
   39400    310.51255   -8677.5288    44.427789   -8721.9566    24388.285 
   39600    286.83645   -8683.6233    41.040238   -8724.6636   -18917.367 
   39800    259.65997   -8679.5449    37.151859   -8716.6968    43152.888 
   40000    348.42426   -8665.6505    49.852154   -8715.5026   -18887.113 
   40200    312.07447   -8684.7226    44.651266   -8729.3739    18267.324 
   40400    307.09736   -8679.6685    43.939148   -8723.6077    33994.826 
   40600    346.68742    -8662.088    49.603648   -8711.6916   -25228.843 
   40800    319.86914   -8676.0518     45.76652   -8721.8183    31197.965 
   41000    285.90939   -8680.2333    40.907596   -8721.1409   -54774.445 
   41200    322.92198   -8676.8071    46.203316   -8723.0104    20012.464 
   41400    286.45523   -8683.9435    40.985695   -8724.9292   -21531.274 
   41600    258.02863   -8693.0729    36.918447   -8729.9913   -583.95925 
   41800     321.1736   -8671.4712     45.95316   -8717.4243    10097.374 
   42000    310.38451   -8681.0782    44.409469   -8725.4877   -19197.002 
   42200    254.64201   -8684.2889    36.433894   -8720.7228   -7399.9385 
   42400    309.39003   -8677.4049     44.26718    -8721.672    2537.1286 
   42600    299.54978   -8686.0236    42.859248   -8728.8829    6768.9176 
   42800    247.22967   -8691.7701    35.373345   -8727.1435     8073.653 
   43000    305.80607   -8682.4902     43.75439   -8726.2446    -18320.71 
   43200    320.89262   -8673.9344    45.912957   -8719.8474   -8318.2874 
   43400    310.34495   -8674.2804    44.403809   -8718.6842   -5612.3064 
   43600    216.51061   -8681.5062    30.978096   -8712.4843    21889.896 
   43800    336.75035   -8671.5407    48.181863   -8719.7225   -12065.795 
   44000    235.49602   -8684.4519    33.694507   -8718.1464   -19556.419 
   44200    285.78218   -8680.8845    40.889394   -8721.7739    21778.142 
   44400    357.86741   -8668.5556     51.20327   -8719.7589    4883.0889 
   44600    310.34618   -8678.1296    44.403984   -8722.5336    10318.839 
   44800    278.83697    -8680.854    39.895681   -8720.7497    55818.138 
   45000    361.52141   -8670.0584    51.726079   -8721.7845   -27645.496 
   45200    263.32593   -8684.7204     37.67638   -8722.3968   -12207.194 
   45400    311.87618   -8681.0892    44.622896   -8725.7121    27592.294 
   45600     323.5835   -8667.8269    46.297965   -8714.1249   -41460.014 
   45800    283.95052   -8679.8675    40.627323   -8720.4948    22997.064 
   46000    284.95882   -8681.4077    40.771589   -8722.1793   -1660.0072 
   46200    253.45264   -8686.9042     36.26372   -8723.1679    21190.169 
   46400    332.53884   -8674.7741    47.579286   -8722.3534    17663.198 
   46600    283.78315   -8685.3461    40.603376   -8725.9495   -11814.622 
   46800    337.80426   -8681.3255    48.332656   -8729.6581      23051.7 
   47000    317.38201   -8678.9205    45.410664   -8724.3311    13286.294 
   47200    337.38608   -8678.9518    48.272823   -8727.2246    10085.087 
   47400    338.27421   -8669.9999    48.399897   -8718.3998   -3004.8306 
   47600    280.50221   -8682.0132    40.133943   -8722.1472    19961.515 
   47800    345.25348   -8668.6199    49.398482   -8718.0183    16318.797 
   48000    367.35167   -8672.4031    52.560266   -8724.9633   -19109.631 
   48200    290.36937   -8685.3371    41.545725   -8726.8828   -51612.614 
   48400     285.3341   -8676.0894    40.825283   -8716.9147    34208.924 
   48600     345.4388   -8667.9209    49.424997   -8717.3459   -57896.206 
   48800     265.4268    -8686.495     37.97697   -8724.4719    16505.426 
   49000    280.44446   -8671.5313     40.12568    -8711.657    23856.448 
   49200    288.73705    -8683.588    41.312174   -8724.9002    16624.129 
   49400    317.58983   -8679.3798    45.440398   -8724.8202   -1693.5965 
   49600    314.45988   -8678.1186    44.992568   -8723.1112    1003.5288 
   49800    286.72583   -8685.5909    41.024411   -8726.6154   -27821.423 
   50000    368.49486   -8671.3435    52.723832   -8724.0673    25913.866 
   50200    257.57031   -8689.8973    36.852872   -8726.7501    -6906.091 
   50400    279.28359   -8681.2746    39.959585   -8721.2342   -21798.975 
   50600    287.14225   -8683.7613    41.083992   -8724.8453    20940.607 
   50800    303.66672   -8689.2281    43.448294   -8732.6764   -43561.038 
   51000    304.00834   -8674.3019    43.497174   -8717.7991   -37152.022 
   51200    303.66063   -8675.4579    43.447424   -8718.9053    25996.675 
   51400    235.56298   -8689.8098    33.704088   -8723.5139    8628.1501 
   51600    275.47266   -8680.0497     39.41432    -8719.464   -37241.337 
   51800    345.84409   -8675.4257    49.482985   -8724.9087   -6388.5279 
   52000    252.99349   -8693.8517    36.198026   -8730.0498    27.206459 
   52200    265.51553   -8690.9218    37.989666   -8728.9114    2331.2292 
   52400    284.62875   -8679.5772    40.724363   -8720.3016    17018.954 
   52600    306.80851   -8681.7304    43.897818   -8725.6282   -38401.573 
   52800    240.02374   -8691.5019    34.342328   -8725.8443   -22557.199 
   53000    307.36432   -8680.8848    43.977344   -8724.8622   -13326.456 
   53200    333.15085   -8669.5927    47.666852   -8717.2596   -10311.597 
   53400    339.80766   -8665.8192      48.6193   -8714.4385    55356.519 
   53600     299.8642   -8684.0672    42.904235   -8726.9715    2052.8352 
   53800    303.46745    -8679.241    43.419784   -8722.6608   -35158.012 
   54000    326.73203   -8667.1391    46.748454   -8713.8875   -6802.5568 
   54200    330.28333   -8686.0891     47.25657   -8733.3457   -2195.5364 
   54400    344.92107   -8681.9251    49.350922    -8731.276    -20615.92 
   54600    338.53893   -8664.8379    48.437771   -8713.2757    2152.2404 
   54800    380.79687   -8676.6448    54.483991   -8731.1288    19301.919 
   55000    332.76347   -8683.1981    47.611425   -8730.8096    34520.757 
   55200    291.60293   -8679.9594    41.722222   -8721.6816   -5187.2623 
   55400    331.92631   -8672.6504    47.491646    -8720.142    -10297.49 
   55600    264.01957   -8686.8102    37.775625   -8724.5859    1749.2662 
   55800    326.89366   -8680.8622    46.771579   -8727.6338   -3496.3853 
   56000    331.96547   -8678.5404    47.497248   -8726.0377    47633.397 
   56200    305.09217   -8682.5754    43.652247   -8726.2277    7838.9953 
   56400    274.87671   -8681.7231    39.329052   -8721.0521    43126.351 
   56600    319.43553   -8669.5393    45.704479   -8715.2438    25836.009 
   56800    267.41095   -8686.2214     38.26086   -8724.4823   -46772.465 
   57000    298.42433   -8680.1695     42.69822   -8722.8677    9316.4019 
   57200    358.68371   -8670.4888    51.320065   -8721.8089    4762.6041 
   57400    365.78288   -8665.8794    52.335806   -8718.2152   -17608.067 
   57600    280.48883   -8687.6721    40.132028   -8727.8041    12088.144 
   57800    308.94494    -8675.117    44.203497   -8719.3205   -37737.113 
   58000    252.14311   -8679.9576    36.076354   -8716.0339    14652.202 
   58200    277.55753   -8686.3828    39.712621   -8726.0954   -16942.058 
   58400    277.80549   -8673.0673    39.748099   -8712.8154   -54298.802 
   58600    279.93913   -8684.0936    40.053378    -8724.147   -32483.904 
   58800    239.52433   -8687.1127    34.270874   -8721.3835     34443.83 
   59000    323.91326   -8674.0424    46.345147   -8720.3876   -24347.424 
   59200     281.0416   -8686.4787    40.211118   -8726.6898   -13265.975 
   59400    197.76938   -8690.7886    28.296622   -8719.0852    19787.505 
   59600    267.75105   -8679.8463    38.309521   -8718.1558   -12810.421 
   59800    277.22372    -8680.554     39.66486   -8720.2189    26247.145 
   60000    275.21194    -8692.409    39.377017   -8731.7861   -16412.197 
   60200    227.04868   -8677.3028    32.485872   -8709.7886    42395.726 
   60400    292.70819   -8674.4557    41.880361   -8716.3361    27148.959 
   60600    253.44775   -8691.1802     36.26302   -8727.4432   -30969.397 
   60800    258.33341   -8690.1573    36.962056   -8727.1193    8975.1255 
   61000    306.94066    -8679.396    43.916726   -8723.3127   -11905.085 
   61200    322.18489   -8673.0717    46.097853   -8719.1696   -9870.1078 
   61400    319.21844   -8683.2071    45.673418   -8728.8805   -42332.672 
   61600    255.90629   -8688.0665    36.614787   -8724.6813    79557.993 
   61800    284.70273   -8676.7441    40.734948    -8717.479   -40355.092 
   62000    365.91975   -8677.5262    52.355389   -8729.8816     21470.37 
   62200     248.2452   -8693.7399    35.518646   -8729.2585    11187.178 
   62400    307.16904   -8682.6998    43.949402   -8726.6492   -20172.685 
   62600    287.65202   -8675.0702    41.156929   -8716.2271    32348.381 
   62800    281.20264   -8680.1041    40.234159   -8720.3383    11508.807 
   63000     210.3037   -8688.5726    30.090018   -8718.6626   -25484.936 
   63200    311.03078   -8673.1782    44.501937   -8717.6802   -12749.277 
   63400    268.20717   -8680.6861    38.374783   -8719.0609    36756.175 
   63600    275.30766   -8690.0883    39.390713   -8729.4791   -24187.136 
   63800    291.22805   -8690.3162    41.668583   -8731.9848     34821.59 
   64000    298.31414   -8675.3766    42.682454   -8718.0591   -18160.605 
   64200    297.04842   -8679.6187    42.501357     -8722.12   -18094.582 
   64400    258.83093   -8692.2945     37.03324   -8729.3278   -4590.0022 
   64600     283.1178   -8680.7775    40.508178   -8721.2857   -50149.369 
   64800    329.86562   -8676.0889    47.196805   -8723.2857    40813.699 
   65000    317.51468   -8662.1054    45.429646    -8707.535   -49571.115 
   65200    253.82713   -8682.6674    36.317302   -8718.9847    39182.249 
   65400    281.65099   -8683.7013    40.298308   -8723.9996    11949.064 
   65600    356.77518   -8669.1476    51.046995   -8720.1946    39926.049 
   65800    291.62667   -8673.7231    41.725618   -8715.4487   -950.79663 
   66000    276.64667   -8682.2789    39.582296   -8721.8612    63514.023 
   66200    326.78106   -8672.7699    46.755469   -8719.5254    -21590.44 
   66400    314.44486   -8677.1365     44.99042    -8722.127    13813.658 
   66600    265.82112   -8687.0687    38.033389   -8725.1021    14493.475 
   66800    301.93446    -8671.268    43.200445   -8714.4684   -7868.7467 
   67000    330.19667   -8672.9278     47.24417    -8720.172   -31367.378 
   67200     297.8033   -8685.0971    42.609363   -8727.7064   -10387.932 
   67400    288.74942   -8679.3538    41.313944   -8720.6678    20387.759 
   67600     360.4134   -8664.8298    51.567547   -8716.3973     40397.62 
   67800     295.6736   -8681.6196    42.304648   -8723.9242    7931.7828 
   68000    340.57591   -8675.7839    48.729221   -8724.5132    8834.8435 
   68200    291.11274   -8684.8227    41.652085   -8726.4748     33935.79 
   68400    275.51532    -8686.766    39.420424   -8726.1864   -32709.314 
   68600    310.33661   -8675.0947    44.402615   -8719.4973   -1078.6644 
   68800      295.679   -8683.6957    42.305421   -8726.0011   -7182.2272 
   69000    300.45035   -8685.6543      42.9881   -8728.6424   -14861.701 
   69200     358.3354     -8671.65    51.270229   -8722.9203   -17532.943 
   69400    269.54812   -8683.1623    38.566643    -8721.729   -7561.4831 
   69600    318.04677   -8682.5858    45.505777   -8728.0916    18280.004 
   69800     329.7594   -8673.9098    47.181606   -8721.0914    3649.5304 
   70000    302.21325   -8678.8001    43.240335   -8722.0405   -17131.455 
   70200    248.40016   -8685.9732    35.540817    -8721.514    38531.933 
   70400    337.05274   -8668.1641     48.22513   -8716.3893    18672.181 
   70600    265.92554   -8688.7145    38.048328   -8726.7629    26138.029 
   70800    288.63913   -8681.2868    41.298164    -8722.585    19948.621 
   71000    309.24535   -8669.2611     44.24648   -8713.5076    18450.802 
   71200    247.73891   -8686.6714    35.446206   -8722.1176   -1377.1423 
   71400    331.82127   -8677.1732    47.476616   -8724.6498   -30725.413 
   71600    318.58896   -8677.3569    45.583353   -8722.9402    34296.679 
   71800    265.92737   -8691.2458     38.04859   -8729.2944   -4947.6562 
   72000    346.17432   -8673.4443    49.530235   -8722.9745   -5498.6391 
   72200     309.4428   -8676.7995     44.27473   -8721.0742    516.36493 
   72400    277.38717    -8692.023    39.688247   -8731.7113   -14957.468 
   72600    308.96945   -8679.2973    44.207003   -8723.5043    599.41515 
   72800    332.06671     -8680.28    47.511734   -8727.7917    545.70721 
   73000    317.64587   -8687.5418    45.448416   -8732.9903   -1799.9955 
   73200    329.73883   -8669.6323    47.178664    -8716.811     2954.576 
   73400    270.92983   -8682.2772    38.764337   -8721.0415   -11406.124 
   73600    313.85399   -8686.0604    44.905878   -8730.9662   -22897.367 
   73800    328.19906   -8668.0588    46.958355   -8715.0172   -26560.669 
   74000    322.25087   -8684.0511    46.107295   -8730.1584    3973.7871 
   74200     271.2789   -8684.3199    38.814281   -8723.1341    -36589.89 
   74400    317.82037   -8671.8475    45.473383   -8717.3209   -23413.974 
   74600     313.1831   -8680.1436    44.809888   -8724.9535    859.14907 
   74800    316.01606    -8679.092    45.215224   -8724.3072    4641.2798 
   75000    313.42426    -8669.908    44.844393   -8714.7524    -14702.87 
   75200    243.66702   -8686.2423    34.863605   -8721.1059   -34069.748 
   75400    237.21404   -8685.9365     33.94032   -8719.8768    19183.326 
   75600    403.23893   -8663.0053    57.694976   -8720.7003   -30025.084 
   75800    320.86405    -8673.143     45.90887   -8719.0519   -36154.294 
   76000    263.62551   -8683.9761    37.719244   -8721.6954   -6735.6145 
   76200    337.80048   -8676.7313    48.332115   -8725.0634   -728.04467 
   76400    374.49483   -8670.2607    53.582302    -8723.843    10435.395 
   76600    293.84533   -8683.2629    42.043061    -8725.306    -9126.406 
   76800    315.60327   -8676.2648    45.156164   -8721.4209    21031.355 
   77000    344.17495   -8654.8522    49.244167   -8704.0964    8388.5686 
   77200    337.25173   -8675.0873    48.253601   -8723.3409    27376.012 
   77400    278.44904   -8685.9725    39.840178   -8725.8126   -5710.0445 
   77600    310.82386   -8676.5694    44.472331   -8721.0417    12523.644 
   77800    294.48898   -8673.2232    42.135154   -8715.3584   -25279.283 
   78000     292.8418   -8685.0251    41.899478   -8726.9246    4821.2037 
   78200    302.33274   -8679.9965    43.257431   -8723.2539   -8822.8608 
   78400    295.69679   -8671.2173    42.307967   -8713.5252    30662.932 
   78600     268.5379   -8690.2453    38.422103   -8728.6674   -26150.329 
   78800    351.99518   -8677.3287    50.363077   -8727.6918   -15890.289 
   79000    262.38015   -8677.4536    37.541058   -8714.9947   -8343.1486 
   79200    251.64891   -8694.7969    36.005645   -8730.8025   -34114.959 
   79400    305.76441    -8686.659     43.74843   -8730.4075   -23771.463 
   79600    374.37882   -8675.9404    53.565704   -8729.5061    28787.299 
   79800    335.53052   -8670.5787    48.007331    -8718.586   -27897.734 
   80000    249.88592   -8686.8777    35.753398   -8722.6311    54578.178 
   80200    277.86752   -8681.2682    39.756975   -8721.0252   -603.76708 
   80400    311.21595   -8675.3977    44.528431   -8719.9261   -12047.468 
   80600    271.61804   -8685.4957    38.862805   -8724.3585   -2473.1161 
   80800    346.70768   -8668.7261    49.606547   -8718.3326   -13043.125 
   81000    315.68403   -8681.0912    45.167718   -8726.2589    6463.2054 
   81200    344.99435   -8683.4822    49.361405   -8732.8437    41521.966 
   81400    282.90663   -8664.9525    40.477965   -8705.4304    18188.496 
   81600    296.57206   -8674.8487    42.433199   -8717.2819   -32530.058 
   81800     292.7869   -8679.2858    41.891622   -8721.1774   -3215.8132 
   82000    297.59346   -8679.4425     42.57934   -8722.0218    -13783.37 
   82200    305.59076    -8684.026    43.723585   -8727.7496    3117.7572 
   82400    324.48505   -8673.0786    46.426958   -8719.5056   -24591.819 
   82600    268.95937   -8691.3877    38.482406   -8729.8701   -3208.7266 
   82800    276.27246   -8686.6075    39.528755   -8726.1363    27725.106 
   83000    289.90824   -8676.4393    41.479747   -8717.9191   -35564.661 
   83200     349.3163    -8669.791    49.979786   -8719.7708    42169.582 
   83400    340.99395   -8684.3368    48.789033   -8733.1259    45991.767 
   83600    262.60848   -8687.1104    37.573727   -8724.6841    16412.535 
   83800    374.23496   -8668.3896    53.545119   -8721.9347   -17224.502 
   84000    299.01476   -8682.7007    42.782698   -8725.4834    3698.3944 
   84200    267.33551    -8683.168    38.250066   -8721.4181    4430.8505 
   84400    343.80656   -8677.5535    49.191459   -8726.7449    1329.9254 
   84600    287.76941   -8680.2298    41.173726   -8721.4035    14097.423 
   84800    246.34748   -8689.1953    35.247123   -8724.4424    36026.927 
   85000    230.00073   -8677.9107    32.908248   -8710.8189    2123.2464 
   85200    333.90081   -8675.8422    47.774155   -8723.6163   -4064.0855 
   85400    269.49454   -8684.5199    38.558978   -8723.0789    19848.319 
   85600    215.26661   -8696.1842    30.800106   -8726.9844   -25194.251 
   85800    282.05965    -8677.916    40.356779   -8718.2728   -45673.989 
   86000    254.87035   -8677.1477    36.466564   -8713.6143    42789.743 
   86200    244.56123    -8694.754    34.991547   -8729.7455   -28153.226 
   86400    254.79868   -8684.5743     36.45631   -8721.0306    23606.627 
   86600     299.5358   -8676.9094    42.857248   -8719.7667   -26193.628 
   86800    306.43506    -8684.426    43.844386   -8728.2704     19523.06 
   87000    257.77583    -8686.667    36.882277   -8723.5492     -30074.2 
   87200    331.35909     -8672.18    47.410488   -8719.5905   -14427.868 
   87400    286.55754   -8682.2112    41.000333   -8723.2116    58859.364 
   87600    243.10321   -8700.7807    34.782936   -8735.5637   -7498.7365 
   87800    316.28634   -8686.6049    45.253897   -8731.8588   -41222.841 
   88000    321.45625   -8673.8469    45.993601   -8719.8405    39472.656 
   88200    346.28539   -8680.7032    49.546126   -8730.2493   -27293.895 
   88400    281.18045   -8689.5285    40.230984   -8729.7595   -16160.192 
   88600    313.16814   -8679.9848    44.807747   -8724.7925    11096.434 
   88800    364.88866   -8675.6294    52.207862   -8727.8372    44758.232 
   89000    283.34082   -8680.0627    40.540088   -8720.6028   -49374.235 
   89200    288.61809   -8685.5997    41.295154   -8726.8948    2061.0935 
   89400    338.46502   -8669.2789    48.427197   -8717.7061    4245.6561 
   89600    293.93432   -8685.7477    42.055795   -8727.8035   -5606.7054 
   89800    308.07543    -8684.228    44.079088   -8728.3071    827.26699 
   90000    308.47532   -8670.0235    44.136304   -8714.1598    37978.213 
   90200    276.63642   -8686.6029     39.58083   -8726.1837   -14152.402 
   90400    251.57682    -8686.536     35.99533   -8722.5313   -17002.196 
   90600    260.81169   -8677.7883    37.316645   -8715.1049   -5600.8891 
   90800    349.72408   -8677.5096    50.038131   -8727.5477    11152.348 
   91000    288.02487    -8684.138    41.210277   -8725.3483    -10416.65 
   91200    347.43641   -8670.2437    49.710813   -8719.9545   -6944.2607 
   91400    301.63562   -8677.6351    43.157687   -8720.7928    16551.739 
   91600     276.8688   -8685.7359    39.614078   -8725.3499    19448.775 
   91800    320.13274   -8673.0707    45.804235    -8718.875    22541.088 
   92000    272.01782   -8673.6998    38.920006   -8712.6198   -37553.727 
   92200    278.94996   -8682.8982    39.911848   -8722.8101   -4246.5237 
   92400    277.33122   -8682.6079     39.68024   -8722.2881   -13130.277 
   92600    239.36195   -8670.6421     34.24764   -8704.8897   -20253.874 
   92800    270.07639   -8684.4956    38.642229   -8723.1379    31499.094 
   93000     260.9519   -8686.8209    37.336707   -8724.1576     4814.736 
   93200    368.69595   -8669.3459    52.752605   -8722.0985   -6102.7668 
   93400    306.08782   -8679.6199    43.794703   -8723.4146    36709.725 
   93600    284.03748   -8686.9797    40.639765   -8727.6194     57879.91 
   93800    333.39531   -8668.7776    47.701828   -8716.4794   -32373.112 
   94000    336.34381   -8679.5555    48.123696   -8727.6792   -31572.413 
   94200    269.91531   -8680.3115    38.619181   -8718.9307   -7402.3915 
   94400     278.5609   -8679.3391    39.856182   -8719.1953   -19809.391 
   94600    229.14451     -8684.49     32.78574   -8717.2758   -442.66254 
   94800    328.40333   -8670.7391    46.987582   -8717.7267    20724.371 
   95000    286.45762   -8683.8629    40.986037    -8724.849   -17465.048 
   95200    318.23747   -8680.3289    45.533061   -8725.8619     13640.75 
   95400    322.96748   -8673.7309    46.209826   -8719.9408   -10278.438 
   95600    234.00106   -8690.7364     33.48061    -8724.217   -9338.5309 
   95800    296.53226   -8677.8849    42.427505   -8720.3124   -47248.362 
   96000     272.8611   -8678.9795    39.040661   -8718.0201   -6810.9829 
   96200     234.3288   -8694.8847    33.527503   -8728.4122    -13966.75 
   96400    281.28516   -8681.2134    40.245966   -8721.4593   -8416.2477 
   96600    273.59345   -8676.2134    39.145445   -8715.3589    11340.185 
   96800    280.11178   -8686.2573     40.07808   -8726.3354    4769.7045 
   97000    285.38524   -8686.8412    40.832601   -8727.6738   -6829.1749 
   97200    274.94961   -8675.2206    39.339483   -8714.5601    -27315.61 
   97400    311.05685    -8680.542    44.505667   -8725.0477    -28955.19 
   97600    274.73149   -8691.0078    39.308274   -8730.3161     12079.22 
   97800    309.37917   -8682.2187    44.265625   -8726.4843   -4297.6866 
   98000     319.8179   -8677.0643    45.759188   -8722.8235   -48431.581 
   98200    384.55259   -8664.9887    55.021354     -8720.01    -22142.17 
   98400    305.12501   -8682.5801    43.656946   -8726.2371   -19161.752 
   98600    311.15077   -8679.9538    44.519104   -8724.4729   -10654.312 
   98800    287.21447   -8684.9609    41.094325   -8726.0553    41473.193 
   99000    292.81513   -8689.3538    41.895661   -8731.2495    26554.606 
   99200    274.92443   -8673.7464     39.33588   -8713.0823    11528.581 
   99400    353.77992   -8676.4437    50.618436   -8727.0621    22039.956 
   99600    325.73392   -8687.0762    46.605646   -8733.6819   -17655.769 
   99800    285.39193   -8685.6574    40.833559    -8726.491    -7457.008 
  100000    331.29074   -8676.4475    47.400709   -8723.8482    -7876.719 
  100200    259.15887   -8687.5178    37.080161    -8724.598     59112.29 
  100400    276.91593   -8680.1135    39.620822   -8719.7343   -12032.005 
  100600    356.63491    -8675.699    51.026925   -8726.7259   -28521.244 
  100800      286.899   -8685.1109    41.049189   -8726.1601    30733.886 
  101000    322.17165    -8668.462    46.095959    -8714.558   -15039.997 
  101200    283.49935   -8674.9139     40.56277   -8715.4767   -17241.169 
  101400    312.18907    -8680.443    44.667663   -8725.1106    5833.7739 
  101600    285.67571   -8689.9606    40.874161   -8730.8347   -4629.6305 
  101800     338.8656   -8672.6666    48.484511   -8721.1511    9047.1617 
  102000    320.33478   -8679.4917    45.833142   -8725.3248    32579.437 
  102200    336.69238    -8678.899    48.173569   -8727.0726   -15898.706 
  102400    285.90736   -8675.5799    40.907306   -8716.4872    -30220.81 
  102600    359.16877   -8667.2216    51.389466    -8718.611    11494.365 
  102800    289.89912   -8685.4219    41.478443   -8726.9003   -2051.4909 
  103000    328.49792   -8680.7012    47.001115   -8727.7023   -32807.659 
  103200    343.33286   -8665.8145    49.123682   -8714.9382    8282.9442 
  103400    276.69557   -8682.2623    39.589292   -8721.8516    42587.769 
  103600    266.23418   -8683.7574    38.092489   -8721.8498   -35200.555 
  103800    370.89916   -8668.9389    53.067837   -8722.0067   -41762.278 
  104000    287.23332   -8688.8025    41.097022   -8729.8995   -21276.759 
  104200    310.50581   -8678.8224    44.426824   -8723.2492   -16828.456 
  104400    315.78819   -8671.6007    45.182621   -8716.7834    20516.149 
  104600     290.8539   -8675.1091    41.615051   -8716.7242     -17123.7 
  104800    262.72156   -8689.8175    37.589907   -8727.4074    7233.5627 
  105000    339.82123   -8673.4561    48.621242   -8722.0774    -1394.098 
  105200    282.93676   -8681.8921    40.482275   -8722.3744    17258.115 
  105400    298.89001   -8686.2983    42.764849   -8729.0632    27250.027 
  105600    310.68472   -8668.9134    44.452422   -8713.3658    51319.931 
  105800    318.67123   -8682.8078    45.595124   -8728.4029    4390.9045 
  106000    306.52441   -8679.5137     43.85717   -8723.3709    42976.086 
  106200    408.80149   -8658.9023    58.490861   -8717.3932    5250.6323 
  106400    351.34484   -8677.2452    50.270026   -8727.5152   -29.036678 
  106600    279.45512   -8683.6395    39.984126   -8723.6236    34326.108 
  106800    316.80099   -8669.6405    45.327532   -8714.9681   -16880.529 
  107000    284.72896     -8680.33    40.738702   -8721.0687    16318.883 
  107200     266.8153   -8682.9925    38.175635   -8721.1681     6228.156 
  107400    324.30393   -8668.0844    46.401044   -8714.4854   -6791.2459 
  107600     280.8825   -8670.0019    40.188354   -8710.1903    3975.5518 
  107800    266.42242   -8682.4272    38.119422   -8720.5466    15660.767 
  108000    293.80515   -8675.3845    42.037312   -8717.4218    23662.519 
  108200    258.74301   -8684.6944    37.020661    -8721.715   -3975.8879 
  108400    328.87869    -8678.013    47.055595   -8725.0686   -2583.5307 
  108600    324.22505   -8676.3051    46.389758   -8722.6949    8632.3089 
  108800    303.86915   -8681.7974    43.477259   -8725.2746    9263.9691 
  109000     357.5519   -8659.9342    51.158127   -8711.0923    2877.1102 
  109200    321.88619   -8678.0142    46.055116   -8724.0693   -15165.572 
  109400    327.22147   -8685.6605    46.818482    -8732.479    6134.9375 
  109600    313.95999    -8672.408    44.921045    -8717.329    25961.243 
  109800    332.73457   -8672.4944    47.607291   -8720.1017    22176.675 
  110000    300.82124   -8685.5368    43.041167    -8728.578   -17947.253 
  110200    328.70583   -8681.6431    47.030863    -8728.674   -5695.3265 
  110400    373.33428   -8665.7617    53.416251    -8719.178   -129.06797 
  110600    334.54526   -8682.5242    47.866362   -8730.3906    6411.0793 
  110800    274.84878   -8680.8093    39.325056   -8720.1344    16742.259 
  111000    368.13445   -8671.9798    52.672265   -8724.6521    20815.148 
  111200    255.80542   -8682.8036    36.600354   -8719.4039   -15351.037 
  111400    307.51234   -8679.3968    43.998523   -8723.3954    63842.137 
  111600     314.9486    -8669.334    45.062494   -8714.3965   -22371.374 
  111800     317.6291    -8684.971    45.446017    -8730.417    25494.163 
  112000    274.42914   -8681.7757    39.265014   -8721.0407   -24870.182 
  112200    299.30535   -8680.4666    42.824275   -8723.2908    51940.412 
  112400    310.49645   -8679.3078    44.425485   -8723.7333    7333.5488 
  112600    228.06946   -8693.3124    32.631923   -8725.9443   -5574.8924 
  112800    318.52927   -8683.2207    45.574812   -8728.7955    -18892.27 
  113000    326.01391   -8678.1699    46.645706   -8724.8156    3700.4185 
  113200    341.26426   -8676.7649    48.827709   -8725.5926   -10443.025 
  113400    284.79401   -8690.8484    40.748009   -8731.5964   -7452.9623 
  113600    328.39583   -8675.7561    46.986509   -8722.7426    17873.356 
  113800    292.70203   -8677.1566     41.87948   -8719.0361     37303.73 
  114000     277.4542   -8681.0014    39.697836   -8720.6993   -5219.5666 
  114200    277.15235   -8692.0804    39.654648    -8731.735     -41443.6 
  114400    313.24717   -8675.9013    44.819055   -8720.7204    16888.658 
  114600     295.5653   -8682.2786    42.289153   -8724.5677    58645.919 
  114800    276.30224   -8693.5533    39.533016   -8733.0863   -59232.206 
  115000    316.02226   -8680.4214    45.216112   -8725.6376    38366.733 
  115200    244.98363   -8674.0354    35.051984   -8709.0874     38225.95 
  115400    247.24997   -8691.9522     35.37625   -8727.3284   -10003.921 
  115600    285.10002   -8687.0216    40.791793   -8727.8134   -45155.632 
  115800    300.08486   -8678.1135    42.935806   -8721.0493    39294.024 
  116000    276.28202   -8681.2655    39.530123   -8720.7956    -21864.31 
  116200    270.51012   -8697.8155    38.704285   -8736.5198    10344.893 
  116400    301.10252   -8681.7915    43.081412   -8724.8729    1134.9888 
  116600    349.02149   -8671.8944    49.937604    -8721.832   -38653.703 
  116800    258.93514   -8687.7498     37.04815    -8724.798    13299.001 
  117000     309.9422   -8681.1529    44.346183   -8725.4991   -23439.054 
  117200    326.70923   -8680.8722    46.745191   -8727.6174    -16204.47 
  117400    340.48007   -8668.9131    48.715508   -8717.6286   -24965.401 
  117600    322.25418    -8677.688    46.107768   -8723.7958    -21002.58 
  117800    286.92276   -8682.3728    41.052588   -8723.4254    20899.042 
  118000    320.56486   -8664.6016    45.866062   -8710.4677    57713.213 
  118200    277.83255   -8686.1919     39.75197   -8725.9439   -9872.2359 
  118400    311.49671   -8680.5177    44.568601   -8725.0863     21305.18 
  118600    311.52434   -8672.6741    44.572555   -8717.2466   -5888.9023 
  118800    261.68652   -8690.5281    37.441815   -8727.9699    1076.5526 
  119000    313.68167   -8681.5165    44.881222   -8726.3977   -12321.528 
  119200      313.696   -8659.2161    44.883274   -8704.0994    22757.135 
  119400    340.62034   -8673.3498    48.735577   -8722.0854   -597.37948 
  119600    322.91668   -8684.2239    46.202557   -8730.4265   -40469.916 
  119800    347.28745   -8676.8464      49.6895   -8726.5359    11652.237 
  120000    331.52966   -8675.8487    47.434893   -8723.2836   -38382.286 
  120200     307.3467   -8685.1498    43.974822   -8729.1246   -19002.907 
  120400    291.57345   -8677.5593    41.718004   -8719.2773    26221.249 
  120600    370.28943   -8668.0102    52.980597   -8720.9908   -28011.059 
  120800    299.38047   -8674.5194    42.835023   -8717.3545   -36923.262 
  121000    314.95128   -8683.0525    45.062877   -8728.1153   -19568.181 
  121200    267.55201   -8673.4849    38.281043    -8711.766   -36197.325 
  121400    289.47561   -8670.9749    41.417846   -8712.3928   -14231.494 
  121600    248.61173    -8685.065    35.571088    -8720.636    9956.2195 
  121800    288.96944   -8682.1838    41.345425   -8723.5292   -12612.245 
  122000    325.60955   -8664.7803    46.587851   -8711.3682    12557.422 
  122200    277.40877   -8677.8614    39.691337   -8717.5528   -12199.846 
  122400    278.37866   -8687.6834    39.830108   -8727.5135   -13149.972 
  122600    330.34099   -8671.1141    47.264819   -8718.3789    17970.748 
  122800    305.09724   -8678.2226    43.652972   -8721.8755    21871.457 
  123000    327.20574   -8681.9928    46.816232    -8728.809    8534.0776 
  123200    334.93724   -8681.9178    47.922445   -8729.8403    18669.201 
  123400    235.77172   -8686.0607    33.733954   -8719.7946   -924.15254 
  123600    299.37727   -8672.8714    42.834565    -8715.706   -30101.643 
  123800    300.46713   -8681.7797    42.990501   -8724.7702    25875.008 
  124000    240.62756   -8698.1861    34.428722   -8732.6148   -14022.172 
  124200    294.71316   -8683.0518     42.16723    -8725.219     26451.51 
  124400    269.85736   -8681.8031     38.61089    -8720.414     18867.89 
  124600    263.04462   -8686.1407     37.63613   -8723.7769   -436.73339 
  124800    332.07657    -8670.923    47.513144   -8718.4361    28853.656 
  125000    232.91356   -8689.2518    33.325011   -8722.5769   -34217.735 
  125200    267.95276   -8682.6054    38.338381   -8720.9438    22275.916 
  125400    312.56169   -8672.6372    44.720977   -8717.3582   -14065.194 
  125600     301.6629   -8681.7872     43.16159   -8724.9488   -28390.785 
  125800    296.51721   -8683.3506    42.425351    -8725.776    15417.952 
  126000    341.12064   -8674.3532    48.807159   -8723.1603   -9949.7499 
  126200    341.51541   -8672.7473    48.863643    -8721.611   -11877.732 
  126400    274.41198   -8683.1428    39.262559   -8722.4054    22104.266 
  126600    362.99516   -8669.7338    51.936941   -8721.6707    32694.077 
  126800    312.86666    -8680.285    44.764612   -8725.0496    10709.568 
  127000    264.77641   -8687.1574    37.883913   -8725.0413    43370.267 
  127200    290.53986    -8672.841    41.570118   -8714.4112   -1732.4742 
  127400    277.88779    -8683.217    39.759875   -8722.9769     18407.87 
  127600    320.42085    -8684.279    45.845458   -8730.1245    3818.3586 
  127800    312.68339   -8673.4396     44.73839    -8718.178   -8053.9239 
  128000    252.00009   -8689.6123    36.055892   -8725.6682    78767.834 
  128200    277.76578   -8687.1777    39.742418   -8726.9201   -18134.193 
  128400    300.68089   -8673.3981    43.021086   -8716.4192    18119.451 
  128600    367.00406   -8663.8205     52.51053    -8716.331    -5409.835 
  128800    297.39026    -8680.543    42.550265   -8723.0933   -9909.3269 
  129000     299.7094   -8686.9884    42.882086   -8729.8705   -12968.833 
  129200    246.01893   -8692.9115    35.200113   -8728.1116    4022.3141 
  129400    336.27335   -8676.9306    48.113616   -8725.0442    4801.9109 
  129600    273.70933   -8681.2941    39.162026   -8720.4562   -9391.0142 
  129800    299.40569    -8683.572    42.838632   -8726.4107    3975.4559 
  130000    277.89355   -8685.5858    39.760698   -8725.3465    7127.6556 
  130200    348.25727   -8674.5733    49.828261   -8724.4016   -21542.707 
  130400    284.55058   -8685.7568    40.713179     -8726.47   -19369.479 
  130600    275.69214    -8683.366    39.445723   -8722.8117    17722.023 
  130800    253.11338   -8679.8248    36.215179     -8716.04    31689.768 
  131000    274.90148   -8678.5528    39.332597   -8717.8854   -40300.087 
  131200    246.83499   -8690.7861    35.316874    -8726.103    20455.238 
  131400    297.12947   -8676.6584    42.512953   -8719.1714   -17917.046 
  131600    284.05327   -8683.3946    40.642024   -8724.0366    27017.579 
  131800    326.97915   -8678.3248    46.783811   -8725.1086   -9384.4843 
  132000    305.15839   -8681.8876    43.661722   -8725.5493    45076.633 
  132200    333.71145   -8684.5662    47.747062   -8732.3133   -11367.011 
  132400    377.04049   -8666.6948    53.946533   -8720.6413    -26106.13 
  132600    298.28916   -8682.0629     42.67888   -8724.7418   -3896.0079 
  132800    285.41216   -8685.8062    40.836453   -8726.6427    -39640.49 
  133000    307.35563    -8674.308    43.976101   -8718.2841    40196.109 
  133200    368.58811   -8669.4747    52.737174   -8722.2119   -35977.163 
  133400    293.11527   -8686.0669    41.938605   -8728.0055   -20660.837 
  133600    283.06965   -8678.7125     40.50129   -8719.2138   -21442.046 
  133800    349.97938   -8670.8063    50.074659    -8720.881   -25365.263 
  134000    286.48656   -8685.0528    40.990178    -8726.043   -25508.063 
  134200    286.35778   -8683.4652    40.971751    -8724.437    3514.1048 
  134400    353.90982   -8669.9191    50.637022   -8720.5561     10441.07 
  134600    329.78339   -8657.1584    47.185039   -8704.3435    -42363.43 
  134800    300.23995   -8678.9849    42.957996   -8721.9429    8501.3543 
  135000    306.75701   -8686.6544    43.890451   -8730.5448    35654.343 
  135200    376.35739   -8670.4569    53.848794   -8724.3057   -35512.304 
  135400    311.01528   -8681.6888    44.499718   -8726.1885     9631.991 
  135600    315.24397   -8683.0154    45.104755   -8728.1202   -971.93546 
  135800    331.64277   -8682.3778    47.451077   -8729.8289   -2348.4807 
  136000    211.51974   -8697.3441    30.264007   -8727.6081    2629.8053 
  136200     284.2104   -8682.3015    40.664507    -8722.966   -32031.538 
  136400    290.17815   -8680.5771    41.518365   -8722.0955    63640.686 
  136600    285.40109   -8687.8191    40.834868   -8728.6539   -10851.085 
  136800    305.16209    -8679.359    43.662251   -8723.0212     27053.65 
  137000    295.07968   -8672.2591    42.219671   -8714.4788    3426.8512 
  137200    291.84966   -8688.7734    41.757523   -8730.5309    18301.993 
  137400    271.39192   -8690.4463    38.830453   -8729.2768    -6205.017 
  137600    361.10194   -8672.9788    51.666062   -8724.6449   -20861.185 
  137800    314.56942   -8688.6869    45.008242   -8733.6952    37490.208 
  138000    293.46143   -8682.0954    41.988134   -8724.0836     22157.62 
  138200    308.77829   -8677.8108    44.179652   -8721.9904   -1166.6278 
  138400    342.75888   -8684.6037    49.041558   -8733.6453     20785.77 
  138600    368.06291   -8670.5827    52.662029   -8723.2447    5247.2011 
  138800    259.60547   -8685.5926    37.144061   -8722.7367   -4700.8312 
  139000    269.61485   -8687.6254    38.576191   -8726.2016    24992.575 
  139200    290.29579   -8675.9148    41.535197     -8717.45    29585.538 
  139400    267.12746   -8682.1508    38.220298   -8720.3711    11852.457 
  139600    230.84183   -8689.6147    33.028592   -8722.6433    18267.676 
  139800    299.58529   -8672.2474    42.864329   -8715.1118   -11141.532 
  140000    321.28647   -8685.5972    45.969309   -8731.5666     9518.195 
  140200    250.17003   -8687.0232    35.794048   -8722.8173    15035.485 
  140400    297.69871   -8679.3279    42.594399   -8721.9223    16501.413 
  140600    292.29627   -8678.2742    41.821424   -8720.0957   -21218.806 
  140800    268.80781   -8691.1966    38.460721   -8729.6573    11832.913 
  141000    346.25568   -8673.1632    49.541875   -8722.7051   -913.09267 
  141200    295.54856   -8676.3529    42.286758   -8718.6396    23823.847 
  141400    267.98716   -8690.8504    38.343304   -8729.1937    50.280924 
  141600    308.80016   -8679.5483    44.182782   -8723.7311   -9099.6242 
  141800    359.99055   -8678.9552    51.507045   -8730.4622    5689.4628 
  142000    290.12273   -8687.2717    41.510437   -8728.7822   -5743.0102 
  142200    353.10693   -8668.3278    50.522146   -8718.8499   -3022.4825 
  142400    242.58086   -8688.5987    34.708198   -8723.3069   -1054.7449 
  142600     277.4031   -8682.5021    39.690526   -8722.1927    -28237.72 
  142800     332.4444   -8667.6239    47.565773   -8715.1897    40781.071 
  143000    279.36247   -8687.8272    39.970869    -8727.798    1746.0462 
  143200    286.63973   -8680.4467    41.012093   -8721.4588   -5975.5982 
  143400    324.40852   -8674.6195    46.416008   -8721.0356   -28870.327 
  143600    295.02038   -8689.4586    42.211187   -8731.6698    8844.3798 
  143800    308.38596   -8676.9923    44.123519   -8721.1158    291.81906 
  144000    332.15208   -8669.5613    47.523948   -8717.0852   -33083.462 
  144200    288.99499   -8686.9189    41.349081    -8728.268    18283.424 
  144400    293.96821   -8680.9694    42.060643   -8723.0301    18198.258 
  144600    356.60945   -8674.7928    51.023281   -8725.8161   -2469.4098 
  144800    314.89425   -8690.2834    45.054717   -8735.3381    13405.332 
  145000     271.0122   -8682.9172    38.776122   -8721.6933    40840.494 
  145200    364.14282   -8671.6712    52.101148   -8723.7724   -16850.884 
  145400    301.33063   -8685.8979    43.114049    -8729.012    5685.5848 
  145600    315.79618   -8678.8956    45.183765   -8724.0794    30835.263 
  145800    329.28535   -8676.3701    47.113779   -8723.4839    -14044.21 
  146000    328.61309   -8682.5458    47.017593   -8729.5634   -19611.519 
  146200    296.25549   -8688.4966    42.387904   -8730.8845    7807.5513 
  146400    344.04036   -8671.0093     49.22491   -8720.2342    -20679.07 
  146600    270.12462   -8684.0665    38.649128   -8722.7156    10840.726 
  146800    271.80813   -8685.3255    38.890004   -8724.2155   -19989.128 
  147000    288.96668   -8679.0656    41.345029   -8720.4107     4699.488 
  147200    264.88329   -8688.5183    37.899206   -8726.4175   -33657.093 
  147400    246.54122   -8694.9356    35.274842   -8730.2104   -2770.1358 
  147600    293.69337   -8677.7072    42.021319   -8719.7286   -6286.6694 
  147800    312.97667   -8676.2088    44.780353   -8720.9892   -4888.9646 
  148000    279.63747   -8689.2258    40.010217    -8729.236   -12849.985 
  148200    320.58932   -8684.2661    45.869562   -8730.1357   -9749.1377 
  148400    302.81208   -8676.4424    43.326014   -8719.7685   -7424.2741 
  148600    309.28723    -8677.041    44.252471   -8721.2934   -35884.084 
  148800    275.27059   -8682.3189    39.385409   -8721.7043   -6418.0645 
  149000    349.58908   -8677.3834    50.018815   -8727.4022   -3357.1108 
  149200    283.58634    -8681.327    40.575216   -8721.9023    40613.723 
  149400    310.79357   -8688.3216    44.467997   -8732.7896   -8779.7786 
  149600    327.55851   -8669.8881    46.866706   -8716.7548    58874.741 
  149800    254.65256   -8678.7493    36.435404   -8715.1847    13727.456 
  150000    267.84859   -8686.2331    38.323477   -8724.5565   -22948.637 
  150200    314.02659   -8683.0607    44.930573   -8727.9912   -19601.907 
  150400      341.204   -8672.9699    48.819086    -8721.789    5077.0675 
  150600    249.43824   -8680.1907    35.689344   -8715.8801   -31217.725 
  150800    272.47896   -8687.2872    38.985985   -8726.2732    57382.237 
  151000    387.62193   -8670.3126    55.460513   -8725.7731    2124.6329 
  151200    286.44129   -8687.8036    40.983699   -8728.7873    28739.877 
  151400    314.84888   -8685.1562    45.048226   -8730.2044   -26313.104 
  151600    295.18936   -8674.2575    42.235364   -8716.4928    60097.227 
  151800    287.54225   -8676.9135    41.141224   -8718.0547   -3204.4855 
  152000     257.3721   -8685.8586    36.824512   -8722.6831   -3795.4242 
  152200    335.09378    -8673.475    47.944843   -8721.4199    36316.818 
  152400    254.74121   -8692.1337    36.448088   -8728.5818     5872.656 
  152600    327.65265   -8681.7206    46.880175   -8728.6008    4404.3284 
  152800    321.49148   -8673.9425    45.998642   -8719.9411    46229.018 
  153000    336.24514   -8669.6026    48.109579   -8717.7122   -10775.223 
  153200    268.63671   -8681.9931    38.436241   -8720.4294   -41617.029 
  153400    285.34882   -8687.6809     40.82739   -8728.5082   -4428.9353 
  153600    302.05383   -8679.2001    43.217524   -8722.4176    3736.5084 
  153800    300.35159   -8676.3603    42.973969   -8719.3343   -7153.9799 
  154000    251.67379   -8689.7756    36.009205   -8725.7848   -23240.924 
  154200    287.35989    -8685.108    41.115132   -8726.2231    -15572.22 
  154400    297.42176   -8671.8513    42.554772   -8714.4061      5102.24 
  154600    257.39306   -8683.7593    36.827512   -8720.5868   -16557.465 
  154800    297.02474   -8687.5003    42.497968   -8729.9983    27070.105 
  155000    270.32846   -8674.8634    38.678294   -8713.5417    -1804.821 
  155200    378.25105   -8662.2412    54.119738   -8716.3609     4765.118 
  155400    301.72918   -8684.1566    43.171075   -8727.3277   -4688.0897 
  155600    312.64329   -8677.5715    44.732652   -8722.3042    15640.396 
  155800     284.1075   -8671.9741    40.649784   -8712.6238    -24868.12 
  156000    281.77144   -8688.8575    40.315542    -8729.173   -1879.4348 
  156200    297.39745   -8679.5485    42.551294   -8722.0998   -20426.305 
  156400    406.13935   -8665.8354    58.109965   -8723.9453    22922.443 
  156600    300.78546   -8684.2561    43.036048   -8727.2921    6352.5731 
  156800    280.30948   -8683.3007    40.106368    -8723.407   -44210.767 
  157000    350.43031   -8676.5271    50.139177   -8726.6663    51614.711 
  157200    372.86762   -8676.0539    53.349483   -8729.4034    34589.538 
  157400    295.60341   -8689.9626    42.294605   -8732.2572    31588.212 
  157600     266.8166   -8674.7389    38.175821   -8712.9147    11675.415 
  157800    292.92968   -8674.6955    41.912052   -8716.6075    32167.061 
  158000    283.08624   -8682.0786    40.503662   -8722.5823    45588.694 
  158200     272.6846   -8689.8321    39.015407   -8728.8475    5679.3727 
  158400    318.07627   -8673.4491    45.509997   -8718.9591   -7114.8198 
  158600    307.84906   -8678.3197      44.0467   -8722.3664    15303.132 
  158800    287.34874   -8691.0899    41.113537   -8732.2034    43566.546 
  159000    309.93987   -8679.6494     44.34585   -8723.9953    7846.2481 
  159200     336.3158   -8677.7168    48.119688   -8725.8364    7822.3343 
  159400     236.6602   -8699.8634    33.861077   -8733.7244   -3821.4074 
  159600    290.65153   -8691.8751    41.586096   -8733.4612    22821.695 
  159800    305.28031   -8677.3064    43.679166   -8720.9855    35757.643 
  160000    307.96176   -8682.0996    44.062825   -8726.1624   -41368.022 
  160200    271.70469   -8690.5498    38.875203    -8729.425   -21521.926 
  160400    354.65564   -8681.4139    50.743733   -8732.1577    2345.0779 
  160600    309.39881   -8678.0834    44.268436   -8722.3519   -25345.753 
  160800    274.52562   -8690.6888    39.278818   -8729.9676    42113.863 
  161000    319.79514   -8684.8248    45.755931   -8730.5808    -5038.237 
  161200     273.5147   -8677.6614    39.134177   -8716.7955    -45344.47 
  161400    289.86532   -8688.4915    41.473606   -8729.9651    452.31403 
  161600    292.06881   -8696.1126    41.788879   -8737.9014   -40336.586 
  161800    318.29221    -8677.896    45.540894   -8723.4369   -33515.776 
  162000    324.12434   -8678.0765    46.375348   -8724.4518    8746.1754 
  162200    280.01914   -8694.1084    40.064826   -8734.1732   -1554.3018 
  162400    314.33477   -8679.5218    44.974668   -8724.4965    13944.421 
  162600    331.32482   -8679.0056    47.405585   -8726.4111    15295.632 
  162800    307.21031   -8684.0368    43.955308   -8727.9921     11634.73 
  163000    289.89629   -8686.9748    41.478037   -8728.4528   -2343.0852 
  163200     352.3273   -8671.8938    50.410596   -8722.3044   -3391.8743 
  163400     330.2643    -8684.815    47.253847   -8732.0688     42271.87 
  163600    230.14306   -8691.1459    32.928612   -8724.0746    5010.0461 
  163800    285.92134   -8677.2101    40.909305   -8718.1194    37637.595 
  164000    276.67627   -8684.4316    39.586532   -8724.0181    7340.2141 
  164200    225.94052   -8691.4086    32.327317    -8723.736   -33121.947 
  164400    330.04667   -8676.6368    47.222708   -8723.8595   -11343.492 
  164600    354.12931   -8674.0763    50.668426   -8724.7448   -19671.829 
  164800    288.62342   -8690.0157    41.295917   -8731.3116   -21696.475 
  165000    341.66125   -8676.7393     48.88451   -8725.6238    9544.2421 
  165200    258.72276   -8689.5762    37.017763    -8726.594    -29830.21 
  165400    247.41371   -8691.0021    35.399677   -8726.4018    66015.697 
  165600    292.25503   -8678.9057    41.815523   -8720.7212   -55516.719 
  165800    343.66594   -8675.6858    49.171338   -8724.8571    47761.928 
  166000    302.28417   -8691.3441    43.250481   -8734.5946    4284.2873 
  166200    290.35616   -8676.9343    41.543834   -8718.4782   -51667.309 
  166400    326.83355   -8677.2923    46.762979   -8724.0553   -9251.7195 
  166600    247.88215   -8695.2422    35.466701   -8730.7089    15696.149 
  166800    307.53233    -8683.819    44.001383   -8727.8204     30284.21 
  167000    332.96361   -8677.9676    47.640061   -8725.6076   -9524.3299 
  167200    259.18291   -8693.7901    37.083601   -8730.8737   -23916.752 
  167400     299.8717   -8689.0534    42.905307   -8731.9587    10387.377 
  167600    347.10698   -8680.0003    49.663679   -8729.6639    19189.936 
  167800    338.02784   -8674.6016    48.364645   -8722.9662    8511.6701 
  168000    345.45111   -8667.1285    49.426759   -8716.5553    4298.8325 
  168200    266.31717    -8683.195    38.104363   -8721.2994    13626.789 
  168400     277.4599   -8682.6246    39.698653   -8722.3233    49173.805 
  168600      323.509   -8669.9878    46.287306   -8716.2751   -7879.0988 
  168800    270.19516   -8688.8693    38.659222   -8727.5285    8136.5062 
  169000    299.96959   -8681.5398    42.919314   -8724.4591    13946.639 
  169200    360.26813    -8666.006    51.546762   -8717.5528    8353.5793 
  169400    326.68702   -8685.0433    46.742014   -8731.7853    16640.071 
  169600    316.18889   -8683.4283    45.239954   -8728.6683   -14007.405 
  169800    325.82806   -8674.1125    46.619114   -8720.7316    40371.443 
  170000    294.16289   -8684.1865    42.088498    -8726.275    22588.392 
  170200    265.23096   -8689.0534    37.948949   -8727.0024   -7207.6984 
  170400    294.53717   -8672.7435    42.142048   -8714.8855    32622.182 
  170600     253.1641   -8685.3241    36.222436   -8721.5466   -41311.461 
  170800     259.4081   -8690.5053    37.115821   -8727.6212   -14633.919 
  171000    321.77625   -8679.7979    46.039387   -8725.8373   -12412.984 
  171200    317.23725   -8678.2999    45.389951   -8723.6898    17486.431 
  171400    238.25003    -8696.054    34.088548   -8730.1426   -12940.564 
  171600    330.21317   -8683.7996    47.246531   -8731.0461    11277.031 
  171800    355.47888   -8676.6394    50.861521    -8727.501    183.49835 
  172000    378.60295   -8659.5951    54.170087   -8713.7652    58740.181 
  172200    318.59172   -8674.9575    45.583747   -8720.5412   -34609.315 
  172400    294.46682   -8686.1527    42.131984   -8728.2847   -8937.6958 
  172600    336.54249   -8675.6456    48.152123   -8723.7978    3714.3994 
  172800    324.37566   -8675.9104    46.411306   -8722.3217   -11319.391 
  173000    299.75446   -8686.6102    42.888534   -8729.4987    5051.4652 
  173200    273.41402   -8681.9983    39.119772    -8721.118   -27898.336 
  173400     317.7356   -8668.7514    45.461254   -8714.2127    20692.307 
  173600    288.38864   -8687.1497    41.262325    -8728.412    35876.045 
  173800    296.82892   -8681.7036     42.46995   -8724.1735   -23994.305 
  174000    325.92005   -8676.5997    46.632276    -8723.232   -2956.0973 
  174200    257.19826   -8686.5988    36.799639   -8723.3985    10454.002 
  174400    253.80806   -8686.5002    36.314574   -8722.8147   -1203.7137 
  174600      294.351   -8672.5334    42.115411   -8714.6488   -29467.264 
  174800    219.25618   -8690.2468     31.37093   -8721.6177    5249.0474 
  175000    233.72956   -8684.7688    33.441765   -8718.2105    5274.5971 
  175200    306.85454   -8675.5872    43.904404   -8719.4916    -27471.81 
  175400    235.24367   -8678.6409    33.658401   -8712.2993   -41717.522 
  175600    289.03607   -8683.9124    41.354957   -8725.2674    2590.0928 
  175800    250.54488   -8688.5504    35.847681   -8724.3981    21235.236 
  176000    304.67348   -8673.6529     43.59234   -8717.2453    4352.9515 
  176200    300.13408   -8682.0492    42.942848    -8724.992   -10608.647 
  176400    247.58641   -8702.0545    35.424387   -8737.4789    25548.888 
  176600    278.82999   -8685.5611    39.894683   -8725.4557   -19435.845 
  176800    278.07587    -8674.294    39.786785   -8714.0808    8033.6718 
  177000    286.32327   -8684.1976    40.966813   -8725.1644    17395.104 
  177200    262.82126   -8690.2008    37.604172    -8727.805   -20256.458 
  177400    258.31461   -8677.3003    36.959366   -8714.2597    53841.947 
  177600    243.67661   -8682.6348    34.864977   -8717.4998   -26035.947 
  177800    278.01592   -8683.4204    39.778207   -8723.1986   -6187.8833 
  178000    340.12765   -8671.9494    48.665084   -8720.6145    59015.522 
  178200    283.29888   -8687.0849    40.534087    -8727.619   -587.41103 
  178400    293.50557   -8681.9059    41.994449   -8723.9003    2851.3659 
  178600    309.69833   -8663.6712    44.311291   -8707.9825    29470.387 
  178800    284.74402   -8682.1612    40.740856    -8722.902   -44827.953 
  179000     279.6855   -8682.5195    40.017088   -8722.5366    -2950.601 
  179200     374.0512   -8665.0104    53.518828   -8718.5292    16716.083 
  179400    307.14545   -8682.1377    43.946028   -8726.0837    6741.5101 
  179600    335.74559   -8684.6917    48.038103   -8732.7298   -20262.483 
  179800    335.65971   -8669.9301    48.025816    -8717.956   -11585.173 
  180000    385.04752   -8677.5694    55.092168   -8732.6616   -14554.772 
  180200    342.96744   -8682.6965    49.071398   -8731.7679    16808.889 
  180400    277.50697   -8683.7443    39.705387   -8723.4497    6777.6043 
  180600    357.92724   -8670.2943    51.211829   -8721.5061   -22108.177 
  180800    292.90179   -8685.8403    41.908061   -8727.7484    8236.6402 
  181000    282.65582   -8682.0522    40.442079   -8722.4943    31131.461 
  181200    296.86682   -8679.6146    42.475373     -8722.09    970.75636 
[...]
  950000    289.77343   -8685.3863    41.460459   -8726.8467   -13688.349 
  950200    299.51697   -8675.6818    42.854554   -8718.5364     14708.23 
  950400    412.41608   -8660.7582    59.008032   -8719.7663    10992.163 
  950600    275.04397   -8682.1796    39.352985   -8721.5326    13814.541 
  950800    381.72341   -8671.5665     54.61656   -8726.1831   -33216.167 
  951000    289.72648    -8688.594    41.453742   -8730.0478    11086.202 
  951200    254.05021   -8680.8254     36.34922   -8717.1746    18451.647 
  951400     309.3176   -8667.0287    44.256817   -8711.2855    3725.4338 
  951600    348.14771   -8674.9701    49.812585   -8724.7827   -24121.499 
  951800    253.32462    -8685.879    36.245403   -8722.1244    -44689.74 
  952000    306.79206     -8669.29    43.895465   -8713.1855     9493.875 
  952200    312.08096    -8675.137    44.652196   -8719.7892   -21244.513 
  952400    324.37348   -8677.6762    46.410996   -8724.0872   -18912.642 
  952600    263.71777   -8686.6124    37.732444   -8724.3448    -11679.56 
  952800    359.76334   -8675.0756    51.474537   -8726.5502    29670.109 
  953000    285.00691   -8681.6193    40.778471   -8722.3977    28036.689 
  953200     284.6526     -8685.53    40.727776   -8726.2578     34444.45 
  953400    347.80933   -8669.9999    49.764171   -8719.7641   -27784.373 
  953600    296.04514   -8684.6642    42.357807    -8727.022   -10344.211 
  953800    291.73404   -8678.1071     41.74098   -8719.8481    20722.438 
  954000    289.14959   -8677.3804      41.3712   -8718.7516    9768.8262 
  954200    291.83373   -8687.2739    41.755244   -8729.0291    6553.2009 
  954400    329.90157   -8674.1636    47.201947   -8721.3656    22994.796 
  954600    310.34369   -8677.8522    44.403628   -8722.2558   -12502.182 
  954800     307.4976   -8680.4809    43.996413   -8724.4773    32365.759 
  955000    260.96191   -8686.4691    37.338138   -8723.8072    -11831.68 
  955200    305.24245   -8674.7077    43.673748   -8718.3814    16291.896 
  955400    318.72531   -8674.5963    45.602862   -8720.1992   -18865.322 
  955600    287.74919   -8681.5337    41.170833   -8722.7045    17845.753 
  955800      331.504   -8674.2321    47.431222   -8721.6634   -22085.231 
  956000    305.91253   -8667.7078    43.769624   -8711.4774      85011.9 
  956200    265.12226   -8681.0604    37.933396   -8718.9938   -38268.113 
  956400    282.05132   -8677.5866    40.355588   -8717.9422    32862.362 
  956600    225.89329   -8686.8332    32.320559   -8719.1538   -17948.113 
  956800    321.39138   -8677.9809    45.984319   -8723.9652    -18527.29 
  957000    326.43071   -8673.1141    46.705341   -8719.8195    30167.036 
  957200     307.2732   -8678.4945    43.964306   -8722.4588    26515.634 
  957400    240.65033   -8689.8058    34.431981   -8724.2377   -19967.344 
  957600     233.4186   -8685.5067    33.397272    -8718.904   -6302.6935 
  957800    298.71437   -8677.0144    42.739718   -8719.7541   -26455.155 
  958000    302.08082   -8684.3646    43.221386    -8727.586    32539.149 
  958200    243.87383   -8690.2732    34.893195   -8725.1664   -36364.944 
  958400    323.15212   -8672.0682    46.236244   -8718.3044    40255.692 
  958600    296.55623   -8686.0561    42.430934   -8728.4871    -27913.57 
  958800     285.4239   -8681.6924    40.838133   -8722.5306   -8870.3868 
  959000    321.50994   -8680.2344    46.001283   -8726.2357    36605.187 
  959200    263.79808   -8681.9031    37.743934   -8719.6471   -58084.385 
  959400    348.89315   -8668.9942    49.919241   -8718.9134     782.4622 
  959600    286.53805   -8679.2715    40.997544    -8720.269   -8380.0209 
  959800    288.85399   -8683.7453    41.328906   -8725.0742    -5437.123 
  960000    357.00353   -8671.5246    51.079665   -8722.6043    6947.5381 
  960200    335.64472   -8673.8463    48.023671   -8721.8699    12350.354 
  960400    310.15761   -8685.9578    44.377004   -8730.3348   -15156.283 
  960600    334.51755   -8676.6273    47.862397   -8724.4897    31616.226 
  960800    336.40113   -8671.8772    48.131898   -8720.0091   -24171.788 
  961000    296.14907   -8687.1296    42.372678   -8729.5023   -24420.428 
  961200    294.50186   -8675.4346    42.136996   -8717.5716    479.54793 
  961400    351.94072    -8668.612    50.355285   -8718.9673   -43592.426 
  961600    259.06968   -8689.5219      37.0674   -8726.5893    56873.545 
  961800    283.26712   -8672.6201    40.529543   -8713.1496   -9665.0352 
  962000    317.11154   -8677.1935    45.371965   -8722.5655    39294.083 
  962200    315.51543    -8684.695    45.143596   -8729.8386   -12488.108 
  962400    324.11195   -8678.2217    46.373575   -8724.5953   -9392.9568 
  962600    373.41281    -8667.925    53.427487   -8721.3524   -9323.5133 
  962800    294.51897   -8687.6454    42.139445   -8729.7848    17695.841 
  963000    271.42186   -8675.0114    38.834736   -8713.8462   -37743.738 
  963200    310.04357   -8674.4873    44.360688    -8718.848    21996.682 
  963400    312.98363    -8681.545    44.781348   -8726.3263   -41964.542 
  963600    291.38183   -8675.3243    41.690587   -8717.0149    17613.646 
  963800    402.27781   -8666.0482    57.557459   -8723.6057    38057.302 
  964000    288.72431   -8684.3278    41.310352   -8725.6381   -1462.5843 
  964200    272.29926   -8682.7876    38.960273   -8721.7479   -21147.778 
  964400    357.93443    -8666.201    51.212858   -8717.4138    16861.535 
  964600    304.58282   -8678.9324     43.57937   -8722.5118   -5214.4732 
  964800    275.72083   -8681.0424    39.449829   -8720.4922   -1538.8403 
  965000    298.83007   -8672.6544    42.756272   -8715.4107    -47141.92 
  965200    307.29343   -8675.2422      43.9672   -8719.2094    12643.498 
  965400    256.08253   -8689.1417    36.640002   -8725.7818   -3897.6594 
  965600      262.723   -8682.2024    37.590113   -8719.7925    31282.471 
  965800    256.80501    -8677.748    36.743374   -8714.4914   -26720.465 
  966000    256.19224   -8695.3918    36.655699   -8732.0475   -40266.758 
  966200    319.90733    -8681.702    45.771983    -8727.474    17727.801 
  966400    300.72154   -8679.7169    43.026902   -8722.7438   -54228.565 
  966600    249.11423   -8690.9271    35.642986     -8726.57   -17996.313 
  966800    254.01351     -8682.34    36.343969    -8718.684   -5410.4848 
  967000    316.69609   -8678.9162    45.312523   -8724.2287   -10622.342 
  967200     296.7302   -8681.7856    42.455825   -8724.2414   -31675.523 
  967400     226.8695   -8692.3281    32.460234   -8724.7884   -14458.425 
  967600    317.58062   -8675.9299     45.43908    -8721.369     42618.44 
  967800    342.59199   -8674.1879     49.01768   -8723.2056    15391.085 
  968000    258.87293   -8687.1646     37.03925   -8724.2038    40097.603 
  968200    315.29532   -8685.3836    45.112102   -8730.4957    9894.1387 
  968400    342.07144   -8674.0737      48.9432   -8723.0169    8422.1696 
  968600    301.16357   -8681.4079    43.090148   -8724.4981   -30275.258 
  968800    261.45148   -8696.8712    37.408185   -8734.2794    9340.7263 
  969000    287.18311   -8682.8604    41.089838   -8723.9502   -41697.497 
  969200    282.65702   -8675.4703    40.442251   -8715.9126    26597.901 
  969400    268.38936   -8681.6611    38.400849   -8720.0619    10738.424 
  969600    213.40074   -8692.3414    30.533139   -8722.8745   -7513.1418 
  969800    295.38347   -8681.7494    42.263137   -8724.0125     21036.71 
  970000    268.69314   -8679.0786    38.444314    -8717.523   -1760.2636 
  970200    280.17762   -8690.0035    40.087501    -8730.091    15665.936 
  970400    334.59126   -8683.5807    47.872944   -8731.4536   -11987.982 
  970600    271.67596     -8679.62    38.871093   -8718.4911   -2268.3222 
  970800    279.47337    -8683.431    39.986737   -8723.4178   -32123.263 
  971000    267.50954   -8693.5832    38.274966   -8731.8581    5638.7326 
  971200     283.2352   -8675.0668    40.524976   -8715.5917    31231.107 
  971400    287.99123   -8683.3482    41.205464   -8724.5537    4247.3325 
  971600     268.4311   -8687.1181    38.406822   -8725.5249   -52777.636 
  971800     361.9775    -8676.723    51.791336   -8728.5144    10078.565 
  972000     322.7504   -8673.2968    46.178767   -8719.4756   -26501.374 
  972200    290.39501   -8686.7584    41.549394   -8728.3078   -3599.0895 
  972400    305.12678   -8678.5995    43.657199   -8722.2567    3882.5047 
  972600    310.78819   -8668.5926    44.467227   -8713.0598   -29931.037 
  972800    262.25897   -8686.8165    37.523721   -8724.3402   -4789.5357 
  973000    339.27644   -8676.8995    48.543293   -8725.4428    9793.9363 
  973200       322.88    -8672.556     46.19731   -8718.7533   -13048.482 
  973400    246.13773   -8685.9383    35.217111   -8721.1555    26579.571 
  973600    319.00139   -8675.0784    45.642362   -8720.7208    15332.187 
  973800    317.66263     -8664.27    45.450815   -8709.7208    39998.898 
  974000    321.42085   -8678.6318    45.988536   -8724.6203   -16179.328 
  974200    312.65662   -8682.1821    44.734559   -8726.9167    580.73409 
  974400    370.44896   -8667.3774    53.003423   -8720.3809   -7795.2733 
  974600    250.56802   -8681.8456    35.850992   -8717.6966    11276.654 
  974800    336.44824   -8683.0763    48.138639    -8731.215   -7535.0174 
  975000    307.94489   -8669.3181    44.060411   -8713.3785   -13518.233 
  975200    315.56673   -8675.2286    45.150935   -8720.3796     5790.758 
  975400    267.95302   -8684.0823    38.338418   -8722.4207    291.00617 
  975600    313.55214   -8675.3965     44.86269   -8720.2592    37629.295 
  975800    307.71656   -8667.0876    44.027742   -8711.1154    2682.7844 
  976000    291.49634   -8686.6351     41.70697    -8728.342    2911.2895 
  976200     294.6701   -8682.4806    42.161068   -8724.6417   -5971.3931 
  976400    400.12056   -8667.2762    57.248802    -8724.525   -11055.671 
  976600     304.1878   -8681.5967     43.52285   -8725.1196    1199.5542 
  976800    321.22474   -8685.5709    45.960476   -8731.5314   -462.88467 
  977000    294.31133   -8667.8797    42.109736   -8709.9895     22688.35 
  977200    294.23112   -8684.0476    42.098259   -8726.1459    14666.424 
  977400    305.48171   -8684.5771    43.707981   -8728.2851    2000.8466 
  977600    301.92053   -8667.4652    43.198453   -8710.6636    12425.636 
  977800    327.75822   -8670.9309    46.895279   -8717.8262   -14292.661 
  978000    269.06607   -8683.1748    38.497672   -8721.6725    2248.2376 
  978200    309.01341   -8680.3016    44.213293   -8724.5149    15400.686 
  978400    288.99878    -8669.009    41.349623   -8710.3586   -58417.304 
  978600     308.8487   -8683.7766    44.189727   -8727.9663    18708.981 
  978800    332.96229   -8679.1222    47.639872    -8726.762   -12164.299 
  979000    414.93256   -8659.5947    59.368086   -8718.9628   -5208.1672 
  979200     309.1786   -8677.7209    44.236928   -8721.9578    12848.249 
  979400    266.49858   -8686.2418    38.130319   -8724.3721    29307.661 
  979600    308.81193   -8669.2288    44.184465   -8713.4133   -14315.724 
  979800    309.40486   -8681.1782    44.269302   -8725.4475    -4004.342 
  980000    313.34308   -8683.4077    44.832778   -8728.2405    13156.173 
  980200    347.92622   -8675.6397    49.780895   -8725.4206    21960.331 
  980400    303.86059   -8666.9848    43.476034   -8710.4608   -17578.899 
  980600    284.00842   -8685.1104    40.635608    -8725.746    18494.211 
  980800    309.75201   -8680.1927    44.318971   -8724.5116   -21251.385 
  981000    308.93187   -8665.2115    44.201627   -8709.4131    3019.3485 
  981200    305.65757   -8682.4049    43.733143   -8726.1381   -25586.871 
  981400    285.75201   -8683.2632    40.885079   -8724.1483    2589.0197 
  981600    376.41099   -8665.7341    53.856464   -8719.5905    8208.3801 
  981800    324.27476   -8681.4889     46.39687   -8727.8858    19653.548 
  982000    328.61418   -8679.9336     47.01775   -8726.9514   -17545.346 
  982200     292.9303   -8678.0045     41.91214   -8719.9166   -22456.782 
  982400    349.21893   -8672.2771    49.965855    -8722.243    41731.326 
  982600    290.78839    -8687.845    41.605678   -8729.4507   -30173.846 
  982800    357.48003   -8678.2387    51.147843   -8729.3865    11401.821 
  983000    307.78123   -8679.3317    44.036995   -8723.3687   -16786.419 
  983200    343.42232   -8670.5169    49.136481   -8719.6534   -36833.671 
  983400    336.67864   -8666.5928    48.171604   -8714.7644   -48131.663 
  983600    246.74979   -8684.8826    35.304684   -8720.1873     2399.441 
  983800    277.80647   -8673.2674     39.74824   -8713.0156    41467.873 
  984000    323.02803   -8680.6308     46.21849   -8726.8493   -26622.924 
  984200    287.33906   -8683.5498    41.112152    -8724.662   -27382.206 
  984400    275.40968     -8673.17    39.405309   -8712.5753   -7928.9406 
  984600    269.40612   -8691.3034    38.546326   -8729.8498    3339.3824 
  984800    257.24126   -8686.0036    36.805791   -8722.8093   -9838.1484 
  985000    274.68278   -8675.0597    39.301306    -8714.361    9294.1857 
  985200     356.0978    -8668.903    50.950076    -8719.853    37197.371 
  985400    295.07952   -8684.3605    42.219649   -8726.5801   -14510.135 
  985600    316.33469   -8681.4051    45.260814   -8726.6659   -1989.9583 
  985800    340.86654   -8671.0269    48.770804   -8719.7977    30837.406 
  986000    237.09049    -8680.663    33.922642   -8714.5857    -20424.54 
  986200    261.64987   -8689.4921    37.436571   -8726.9286   -13799.271 
  986400    247.33471   -8688.1246    35.388373    -8723.513    1827.8371 
  986600    286.20949   -8675.3249    40.950534   -8716.2755    18787.289 
  986800    294.20258   -8680.8668    42.094176    -8722.961   -1526.4298 
  987000    257.22329   -8689.7575    36.803221   -8726.5607    25356.399 
  987200    328.16315   -8672.7395    46.953217   -8719.6927   -35954.902 
  987400     308.3885    -8681.407    44.123882   -8725.5308    22322.058 
  987600    298.12717   -8683.3573    42.655702    -8726.013    13354.668 
  987800    319.72526   -8669.6189    45.745933   -8715.3648   -693.34631 
  988000    285.31838   -8683.7837    40.823034   -8724.6068    13708.572 
  988200     273.1797   -8680.2588    39.086247    -8719.345    -17981.59 
  988400    365.36584   -8663.7813    52.276136   -8716.0575    -16720.43 
  988600    295.01027   -8681.3694     42.20974   -8723.5791      10679.6 
  988800    317.81974   -8682.1125    45.473293   -8727.5858   -32349.717 
  989000     309.7956   -8665.8061    44.325208   -8710.1313    83002.349 
  989200    293.37314   -8678.7879    41.975501   -8720.7634   -5239.1256 
  989400    322.69777   -8682.1296    46.171236   -8728.3008    -4771.794 
  989600    343.46705   -8670.4538    49.142882   -8719.5967    12004.306 
  989800    301.07253   -8674.8216    43.077122   -8717.8987    14724.503 
  990000    271.41945   -8682.6015    38.834392   -8721.4359   -23032.869 
  990200    359.57402    -8673.546    51.447448   -8724.9935   -23684.311 
  990400    254.59665   -8689.8551    36.427404   -8726.2825    -9632.429 
  990600    293.19127   -8679.0527     41.94948   -8721.0022    5081.3105 
  990800    294.20537   -8683.4634    42.094575    -8725.558      23897.8 
  991000     290.6596   -8681.0292     41.58725   -8722.6164     5089.029 
  991200    338.94386   -8670.1669    48.495709   -8718.6626    21490.758 
  991400    317.47099   -8689.2934    45.423394   -8734.7168   -15273.824 
  991600     323.6644   -8681.0933    46.309541   -8727.4028   -19392.717 
  991800    341.20094   -8677.4013    48.818649     -8726.22    6648.7399 
  992000    347.78871   -8665.5116     49.76122   -8715.2728   -32067.007 
  992200    294.37611   -8685.3581    42.119004   -8727.4772    12418.137 
  992400     251.4851   -8682.2689    35.982207   -8718.2511    11078.454 
  992600    342.83592   -8669.6494     49.05258   -8718.7019    41027.745 
  992800    311.96951   -8682.5809    44.636249   -8727.2171    5545.1811 
  993000    265.41967   -8683.9125    37.975949   -8721.8884    150.55701 
  993200     348.2241   -8666.7622    49.823515   -8716.5858    26463.703 
  993400    280.73695   -8685.3562     40.16753   -8725.5238   -44676.038 
  993600    242.72264   -8686.8412    34.728484   -8721.5697    45019.256 
  993800    298.52838   -8671.2419    42.713106    -8713.955    2263.0042 
  994000    247.06425   -8688.2298    35.349676   -8723.5795   -58164.474 
  994200    264.56214   -8681.4897    37.853255    -8719.343   -44673.942 
  994400    319.55124   -8677.7829    45.721034    -8723.504   -53334.332 
  994600    323.97033   -8681.2212    46.353313   -8727.5745     18792.69 
  994800    354.50299   -8662.0003    50.721891   -8712.7222    49067.076 
  995000    310.24835   -8680.4248    44.389987   -8724.8148    14067.269 
  995200    274.36206   -8682.5198    39.255418   -8721.7752   -12560.476 
  995400    322.60976   -8674.7964    46.158643    -8720.955   -17138.571 
  995600    296.81411   -8682.2213    42.467831   -8724.6891    -52578.34 
  995800    266.74733   -8684.4189    38.165909   -8722.5848    63816.826 
  996000    330.81431   -8670.6192    47.332542   -8717.9518   -5603.7083 
  996200    335.12231   -8677.4199    47.948925   -8725.3688      11975.9 
  996400    350.07421   -8681.9508    50.088226    -8732.039     20976.62 
  996600    264.78315   -8683.7602    37.884877   -8721.6451   -6858.4296 
  996800    376.83864   -8665.3174    53.917652    -8719.235    11313.785 
  997000    292.09259    -8684.484    41.792281   -8726.2763   -13510.316 
  997200    298.79469   -8678.0819     42.75121   -8720.8332   -22154.531 
  997400    312.07983   -8675.8683    44.652033   -8720.5203    25776.989 
  997600    276.89818   -8684.5863    39.618282   -8724.2046    26237.819 
  997800    325.03961   -8674.3661    46.506305   -8720.8724     -6477.32 
  998000    243.66234   -8691.6383    34.862935   -8726.5013   -229.01578 
  998200     309.1247   -8686.1278    44.229216    -8730.357    49916.468 
  998400    327.40812   -8676.6896    46.845187   -8723.5348    12493.394 
  998600    287.58633   -8682.4019    41.147531   -8723.5494    7337.8284 
  998800     307.9073    -8682.842    44.055032    -8726.897   -28780.495 
  999000    328.61575   -8677.5253    47.017974   -8724.5432    1391.6425 
  999200    293.19124   -8682.6867    41.949475   -8724.6362    30146.389 
  999400     354.6246   -8665.7666    50.739292   -8716.5059    44344.431 
  999600    251.42072   -8682.2558    35.972996   -8718.2288    16618.586 
  999800    277.90997    -8676.265    39.763048   -8716.0281    2950.8082 
 1000000      299.602   -8684.9489    42.866719   -8727.8156   -12498.115 
Loop time of 4355.88 on 8 procs for 1000000 steps with 49 atoms

Performance: 4.959 ns/day, 4.840 hours/ns, 229.575 timesteps/s
99.1% CPU use with 8 MPI tasks x no OpenMP threads

MPI task timing breakdown:
Section |  min time  |  avg time  |  max time  |%varavg| %total
---------------------------------------------------------------
Pair    | 3808.7     | 3859.2     | 3947.4     |  66.9 | 88.60
Neigh   | 2.947      | 3.0286     | 3.1435     |   3.5 |  0.07
Comm    | 51.118     | 139.61     | 190.03     | 351.3 |  3.21
Output  | 0.094334   | 0.1125     | 0.2315     |  13.4 |  0.00
Modify  | 349.58     | 350.22     | 351.01     |   2.2 |  8.04
Other   |            | 3.749      |            |       |  0.09

Nlocal:    6.125 ave 7 max 6 min
Histogram: 7 0 0 0 0 0 0 0 0 1
Nghost:    892.75 ave 916 max 874 min
Histogram: 2 0 0 2 1 1 0 0 1 1
Neighs:    1679 ave 1889 max 1638 min
Histogram: 7 0 0 0 0 0 0 0 0 1

Total # of neighbors = 13432
Ave neighs/atom = 274.122
Neighbor list builds = 1350
Dangerous builds = 0

Please see the log.cite file for references relevant to this simulation

Total wall time: 1:12:45
