ITEM: TIMESTEP
0
ITEM: NUMBER OF ATOMS
74
ITEM: BOX BOUNDS pp pp pp
0.0000000000000000e+00 1.3600000000000000e+01
0.0000000000000000e+00 1.3600000000000000e+01
0.0000000000000000e+00 1.3600000000000000e+01
ITEM: ATOMS id type x y z 
1 1 6.672 0.882 7.682 
2 1 6.673 1.896 8.696 
3 1 6.672 2.763 9.563 
7 1 6.673 5.663 12.463 
8 1 6.672 4.65 11.449 
9 1 6.672 3.783 10.582 
49 1 5.663 6.673 12.463 
50 1 4.65 6.672 11.449 
51 1 3.783 6.672 10.582 
55 1 0.882 6.672 7.682 
56 1 1.896 6.673 8.696 
57 1 2.763 6.672 9.563 
73 2 6.376 1.874 10.546 
74 3 6.376 1.874 11.522 
25 1 0.882 7.682 6.672 
26 1 1.896 8.696 6.673 
27 1 2.763 9.563 6.672 
31 1 5.663 12.463 6.673 
32 1 4.65 11.449 6.672 
33 1 3.783 10.582 6.672 
37 1 6.673 12.463 5.663 
38 1 6.672 11.449 4.65 
39 1 6.672 10.582 3.783 
43 1 6.672 7.682 0.882 
44 1 6.673 8.696 1.896 
45 1 6.672 9.563 2.763 
28 1 5.662 7.683 13.473 
29 1 4.649 8.696 13.472 
30 1 3.781 9.563 13.471 
34 1 0.882 12.462 13.473 
35 1 1.896 11.449 13.472 
36 1 2.763 10.582 13.472 
52 1 5.662 13.473 7.683 
53 1 4.649 13.472 8.696 
54 1 3.781 13.472 9.563 
58 1 0.882 13.472 12.462 
59 1 1.896 13.472 11.449 
60 1 2.763 13.472 10.582 
13 1 7.682 6.672 0.882 
14 1 8.696 6.673 1.896 
15 1 9.563 6.672 2.763 
19 1 12.463 6.673 5.663 
20 1 11.449 6.672 4.65 
21 1 10.582 6.672 3.783 
61 1 12.463 5.663 6.673 
62 1 11.449 4.65 6.672 
63 1 10.582 3.783 6.672 
67 1 7.682 0.882 6.672 
68 1 8.696 1.896 6.673 
69 1 9.563 2.763 6.672 
4 1 13.473 5.662 7.683 
5 1 13.472 4.649 8.696 
6 1 13.471 3.781 9.563 
10 1 13.473 0.883 12.462 
11 1 13.473 1.896 11.449 
12 1 13.472 2.763 10.582 
64 1 7.683 5.662 13.473 
65 1 8.696 4.649 13.472 
66 1 9.563 3.781 13.471 
70 1 12.462 0.883 13.473 
71 1 11.449 1.896 13.473 
72 1 10.582 2.763 13.472 
16 1 7.683 13.473 5.662 
17 1 8.696 13.472 4.649 
18 1 9.563 13.471 3.781 
22 1 12.462 13.473 0.882 
23 1 11.449 13.473 1.896 
24 1 10.582 13.472 2.763 
40 1 13.473 7.683 5.662 
41 1 13.472 8.696 4.649 
42 1 13.471 9.563 3.781 
46 1 13.473 12.462 0.882 
47 1 13.473 11.449 1.896 
48 1 13.472 10.582 2.763 
ITEM: TIMESTEP
10
ITEM: NUMBER OF ATOMS
74
ITEM: BOX BOUNDS pp pp pp
0.0000000000000000e+00 1.3600000000000000e+01
0.0000000000000000e+00 1.3600000000000000e+01
0.0000000000000000e+00 1.3600000000000000e+01
ITEM: ATOMS id type x y z 
1 1 6.681 0.896147 7.70711 
2 1 6.66362 1.90418 8.64722 
3 1 6.68875 2.81516 9.44603 
7 1 6.67365 5.65264 12.4492 
8 1 6.67104 4.65366 11.4593 
9 1 6.67768 3.76058 10.5623 
49 1 5.61961 6.69396 12.4408 
50 1 4.62948 6.67246 11.4288 
51 1 3.77326 6.67157 10.5727 
55 1 0.899184 6.67255 7.69926 
56 1 1.90795 6.6742 8.70545 
57 1 2.76563 6.6715 9.56653 
73 2 6.36255 1.83115 10.6328 
74 3 6.36321 1.85076 11.5792 
25 1 0.898583 7.70032 6.67093 
26 1 1.90614 8.70359 6.67419 
27 1 2.76882 9.56991 6.67144 
31 1 5.64424 12.4428 6.67157 
32 1 4.63809 11.4365 6.67155 
33 1 3.77349 10.5729 6.67182 
37 1 6.67262 12.4399 5.64191 
38 1 6.66851 11.439 4.64037 
39 1 6.67371 10.5738 3.7744 
43 1 6.67205 7.70854 0.908171 
44 1 6.67436 8.70582 1.90829 
45 1 6.6714 9.57597 2.77477 
28 1 5.63888 7.7103 13.4776 
29 1 4.63763 8.71361 13.4766 
30 1 3.76693 9.57438 13.4694 
34 1 0.899237 12.4468 13.4729 
35 1 1.90505 11.4395 13.4685 
36 1 2.76825 10.5767 13.4734 
52 1 5.62661 13.4577 7.70415 
53 1 4.63426 13.4659 8.70491 
54 1 3.77035 13.4752 9.57629 
58 1 0.898643 13.4717 12.4445 
59 1 1.90791 13.4694 11.4426 
60 1 2.76899 13.4736 10.5737 
13 1 7.70427 6.67912 0.9125 
14 1 8.70922 6.67434 1.90808 
15 1 9.57677 6.67182 2.778 
19 1 12.4457 6.67329 5.64647 
20 1 11.4396 6.66909 4.64135 
21 1 10.5754 6.67349 3.77579 
61 1 12.4447 5.64576 6.67318 
62 1 11.4388 4.64028 6.66908 
63 1 10.5747 3.77528 6.67351 
67 1 7.72018 0.9029 6.65561 
68 1 8.70653 1.90656 6.67232 
69 1 9.57919 2.77893 6.67197 
4 1 13.4714 5.64352 7.69855 
5 1 13.4743 4.64107 8.70907 
6 1 13.4699 3.77416 9.5678 
10 1 13.4741 0.899097 12.4439 
11 1 13.4768 1.90638 11.437 
12 1 13.4697 2.76859 10.5765 
64 1 7.72525 5.64007 13.4944 
65 1 8.72248 4.62624 13.4736 
66 1 9.56703 3.77548 13.4703 
70 1 12.4454 0.899796 13.472 
71 1 11.4376 1.90582 13.4768 
72 1 10.5783 2.76668 13.4696 
16 1 7.70057 13.4679 5.63834 
17 1 8.71013 13.4742 4.63951 
18 1 9.57173 13.4696 3.77011 
22 1 12.4455 13.4709 0.900082 
23 1 11.4385 13.4765 1.90477 
24 1 10.5766 13.4698 2.76842 
40 1 13.4729 7.69868 5.64489 
41 1 13.4743 8.70888 4.6413 
42 1 13.47 9.56801 3.77396 
46 1 13.4726 12.4448 0.89891 
47 1 13.4766 11.4371 1.90607 
48 1 13.4698 10.5765 2.76862 
ITEM: TIMESTEP
20
ITEM: NUMBER OF ATOMS
74
ITEM: BOX BOUNDS pp pp pp
0.0000000000000000e+00 1.3600000000000000e+01
0.0000000000000000e+00 1.3600000000000000e+01
0.0000000000000000e+00 1.3600000000000000e+01
ITEM: ATOMS id type x y z 
1 1 6.68082 0.872868 7.68826 
2 1 6.66208 1.93013 8.65628 
3 1 6.72237 2.93694 9.34288 
7 1 6.67263 5.65962 12.4541 
8 1 6.67272 4.62586 11.4396 
9 1 6.67278 3.75481 10.5747 
49 1 5.64056 6.67844 12.4455 
50 1 4.63729 6.67361 11.4383 
51 1 3.77268 6.67116 10.572 
55 1 0.895318 6.67206 7.69561 
56 1 1.90637 6.67459 8.70402 
57 1 2.76961 6.67136 9.57012 
73 2 6.33561 1.74839 10.7276 
74 3 6.35966 1.85399 11.6149 
25 1 0.89845 7.69877 6.67201 
26 1 1.90613 8.70388 6.67452 
27 1 2.77001 9.57072 6.67143 
31 1 5.64469 12.4424 6.67103 
32 1 4.63875 11.4359 6.6697 
33 1 3.77175 10.572 6.67241 
37 1 6.67171 12.4429 5.64449 
38 1 6.66827 11.4375 4.64198 
39 1 6.67343 10.5745 3.77341 
43 1 6.67115 7.70215 0.901221 
44 1 6.67469 8.70655 1.90874 
45 1 6.67156 9.57397 2.77289 
28 1 5.64486 7.70064 13.4729 
29 1 4.63871 8.71212 13.4782 
30 1 3.769 9.57312 13.4696 
34 1 0.897877 12.4464 13.473 
35 1 1.9047 11.4437 13.4683 
36 1 2.76733 10.5753 13.4729 
52 1 5.63994 13.4655 7.70175 
53 1 4.63143 13.4642 8.70587 
54 1 3.77091 13.4759 9.57588 
58 1 0.89916 13.4727 12.4445 
59 1 1.90648 13.4683 11.4425 
60 1 2.76988 13.4745 10.5746 
13 1 7.69878 6.67622 0.902704 
14 1 8.70926 6.67209 1.9091 
15 1 9.57409 6.67376 2.7751 
19 1 12.4465 6.67322 5.6463 
20 1 11.4401 6.66897 4.64394 
21 1 10.5767 6.67343 3.77602 
61 1 12.4453 5.6452 6.67311 
62 1 11.4393 4.64322 6.669 
63 1 10.5757 3.77513 6.67336 
67 1 7.70899 0.898471 6.66394 
68 1 8.7103 1.90844 6.67114 
69 1 9.57473 2.77493 6.67241 
4 1 13.4726 5.64526 7.69958 
5 1 13.4757 4.64034 8.70812 
6 1 13.4692 3.77275 9.57082 
10 1 13.4735 0.899996 12.445 
11 1 13.4762 1.90419 11.4365 
12 1 13.4699 2.77189 10.5739 
64 1 7.70139 5.64939 13.4784 
65 1 8.70918 4.638 13.474 
66 1 9.57262 3.77158 13.4703 
70 1 12.4495 0.897196 13.4721 
71 1 11.4398 1.90104 13.4759 
72 1 10.577 2.76866 13.4701 
16 1 7.70041 13.4688 5.64079 
17 1 8.70957 13.4744 4.63757 
18 1 9.57321 13.4693 3.77028 
22 1 12.4469 13.4719 0.899322 
23 1 11.4387 13.4756 1.90231 
24 1 10.5755 13.4701 2.77008 
40 1 13.4726 7.70011 5.64465 
41 1 13.4757 8.70789 4.64065 
42 1 13.4693 9.57064 3.7729 
46 1 13.4725 12.4451 0.900378 
47 1 13.4759 11.4367 1.90393 
48 1 13.47 10.574 2.7718 
ITEM: TIMESTEP
30
ITEM: NUMBER OF ATOMS
74
ITEM: BOX BOUNDS pp pp pp
0.0000000000000000e+00 1.3600000000000000e+01
0.0000000000000000e+00 1.3600000000000000e+01
0.0000000000000000e+00 1.3600000000000000e+01
ITEM: ATOMS id type x y z 
1 1 6.67691 0.887434 7.69948 
2 1 6.678 1.97222 8.63381 
3 1 6.7229 2.96035 9.35149 
7 1 6.66967 5.63633 12.439 
8 1 6.67326 4.62029 11.432 
9 1 6.67404 3.74454 10.5638 
49 1 5.647 6.67242 12.4457 
50 1 4.6429 6.6727 11.443 
51 1 3.77836 6.67135 10.5781 
55 1 0.897018 6.67243 7.69705 
56 1 1.908 6.67403 8.70584 
57 1 2.77179 6.67161 9.57188 
73 2 6.31766 1.68811 10.7524 
74 3 6.36484 1.89661 11.6385 
25 1 0.898759 7.69813 6.67289 
26 1 1.90601 8.70422 6.67411 
27 1 2.77027 9.57072 6.67199 
31 1 5.6459 12.4445 6.67267 
32 1 4.63908 11.4361 6.66994 
33 1 3.77183 10.5721 6.67187 
37 1 6.67238 12.4448 5.64575 
38 1 6.6692 11.4376 4.64102 
39 1 6.67248 10.5743 3.77381 
43 1 6.6716 7.69868 0.898189 
44 1 6.67408 8.70346 1.90498 
45 1 6.67233 9.57024 2.7694 
28 1 5.64786 7.69261 13.4676 
29 1 4.64046 8.70808 13.4761 
30 1 3.77274 9.57048 13.4713 
34 1 0.897933 12.4464 13.473 
35 1 1.90623 11.4406 13.4692 
36 1 2.76937 10.5738 13.4716 
52 1 5.64703 13.468 7.70173 
53 1 4.63723 13.4669 8.70433 
54 1 3.77352 13.475 9.57107 
58 1 0.897048 13.4721 12.4472 
59 1 1.90643 13.4696 11.442 
60 1 2.77001 13.4744 10.5756 
13 1 7.69634 6.6703 0.894804 
14 1 8.70689 6.67208 1.90558 
15 1 9.5711 6.67372 2.77212 
19 1 12.4469 6.67321 5.64642 
20 1 11.4383 6.67002 4.6413 
21 1 10.5747 6.67299 3.775 
61 1 12.4476 5.64791 6.67253 
62 1 11.439 4.64198 6.66992 
63 1 10.5754 3.77566 6.67274 
67 1 7.7011 0.895743 6.67259 
68 1 8.70734 1.90365 6.66944 
69 1 9.57031 2.77131 6.67342 
4 1 13.4738 5.64613 7.69981 
5 1 13.4746 4.64039 8.70746 
6 1 13.4699 3.77354 9.57105 
10 1 13.4724 0.899899 12.4461 
11 1 13.475 1.90459 11.437 
12 1 13.4704 2.77136 10.5734 
64 1 7.69862 5.64659 13.4727 
65 1 8.70318 4.64342 13.4732 
66 1 9.56717 3.77728 13.4704 
70 1 12.448 0.898294 13.4724 
71 1 11.4372 1.90477 13.4747 
72 1 10.5736 2.77108 13.4707 
16 1 7.69973 13.4711 5.64429 
17 1 8.70828 13.4728 4.63795 
18 1 9.57299 13.4699 3.7712 
22 1 12.4473 13.473 0.898063 
23 1 11.4388 13.4746 1.90299 
24 1 10.5749 13.4705 2.76965 
40 1 13.4725 7.69911 5.64555 
41 1 13.4745 8.70738 4.64041 
42 1 13.4699 9.57112 3.77344 
46 1 13.4729 12.4455 0.899669 
47 1 13.4748 11.4372 1.90433 
48 1 13.4705 10.5735 2.77117 
ITEM: TIMESTEP
40
ITEM: NUMBER OF ATOMS
74
ITEM: BOX BOUNDS pp pp pp
0.0000000000000000e+00 1.3600000000000000e+01
0.0000000000000000e+00 1.3600000000000000e+01
0.0000000000000000e+00 1.3600000000000000e+01
ITEM: ATOMS id type x y z 
1 1 6.66332 0.911872 7.69599 
2 1 6.72052 2.05639 8.54843 
3 1 6.71273 2.96881 9.35811 
7 1 6.67482 5.61783 12.4183 
8 1 6.67556 4.60761 11.4516 
9 1 6.67138 3.72309 10.5839 
49 1 5.64542 6.66571 12.4407 
50 1 4.64348 6.66985 11.4404 
51 1 3.77773 6.67179 10.5777 
55 1 0.904722 6.67217 7.70499 
56 1 1.91098 6.67322 8.70881 
57 1 2.7756 6.67196 9.57566 
73 2 6.27245 1.52686 10.8383 
74 3 6.38366 2.03648 11.6389 
25 1 0.897156 7.69508 6.67408 
26 1 1.90516 8.70425 6.67386 
27 1 2.76945 9.56961 6.6726 
31 1 5.6517 12.4482 6.67642 
32 1 4.64333 11.4399 6.6714 
33 1 3.77606 10.5766 6.67094 
37 1 6.67006 12.4441 5.64663 
38 1 6.67181 11.4371 4.63811 
39 1 6.67056 10.5724 3.77282 
43 1 6.67351 7.69541 0.89569 
44 1 6.67284 8.69976 1.90149 
45 1 6.67341 9.5668 2.76583 
28 1 5.65057 7.69196 13.469 
29 1 4.64218 8.69989 13.4697 
30 1 3.77998 9.56575 13.4744 
34 1 0.89944 12.446 13.4718 
35 1 1.90972 11.434 13.4706 
36 1 2.77494 10.57 13.4704 
52 1 5.65615 13.4728 7.70768 
53 1 4.64392 13.4737 8.70809 
54 1 3.77434 13.4732 9.56864 
58 1 0.89745 13.4723 12.4489 
59 1 1.90678 13.4723 11.4391 
60 1 2.77207 13.4742 10.574 
13 1 7.6959 6.66522 0.888402 
14 1 8.70219 6.6712 1.8996 
15 1 9.56592 6.67286 2.76558 
19 1 12.446 6.67109 5.64635 
20 1 11.4347 6.67278 4.63669 
21 1 10.5697 6.67232 3.77159 
61 1 12.4481 5.64809 6.67217 
62 1 11.4373 4.63832 6.67228 
63 1 10.5706 3.77443 6.672 
67 1 7.6977 0.891326 6.67901 
68 1 8.70876 1.90002 6.67132 
69 1 9.56859 2.76986 6.67106 
4 1 13.4728 5.65012 7.69596 
5 1 13.4733 4.6421 8.70413 
6 1 13.4709 3.77731 9.56875 
10 1 13.471 0.896415 12.4503 
11 1 13.4718 1.90328 11.4405 
12 1 13.4718 2.76794 10.5753 
64 1 7.69765 5.63876 13.4659 
65 1 8.69979 4.64234 13.4695 
66 1 9.56756 3.77737 13.4713 
70 1 12.4415 0.904948 13.4723 
71 1 11.4331 1.90992 13.4722 
72 1 10.5677 2.77625 13.4719 
16 1 7.69692 13.4674 5.64922 
17 1 8.70538 13.4707 4.64021 
18 1 9.56989 13.4707 3.77459 
22 1 12.4489 13.4752 0.89493 
23 1 11.4394 13.4727 1.90252 
24 1 10.5752 13.4717 2.76865 
40 1 13.4719 7.69396 5.65104 
41 1 13.4727 8.70511 4.6404 
42 1 13.4712 9.57042 3.77583 
46 1 13.4735 12.4504 0.894393 
47 1 13.472 11.4389 1.90394 
48 1 13.4716 10.5744 2.76924 
ITEM: TIMESTEP
50
ITEM: NUMBER OF ATOMS
74
ITEM: BOX BOUNDS pp pp pp
0.0000000000000000e+00 1.3600000000000000e+01
0.0000000000000000e+00 1.3600000000000000e+01
0.0000000000000000e+00 1.3600000000000000e+01
ITEM: ATOMS id type x y z 
1 1 6.66543 0.912571 7.68449 
2 1 6.70623 2.04986 8.54812 
3 1 6.72391 2.97631 9.33673 
7 1 6.6711 5.63663 12.4326 
8 1 6.66113 4.62547 11.4329 
9 1 6.67039 3.68681 10.6238 
49 1 5.64984 6.66623 12.4436 
50 1 4.64402 6.67012 11.4421 
51 1 3.77919 6.67122 10.5785 
55 1 0.899444 6.67191 7.69926 
56 1 1.9112 6.67417 8.70965 
57 1 2.77531 6.67154 9.57505 
73 2 6.27168 1.527 10.8674 
74 3 6.38428 2.04286 11.6114 
25 1 0.897689 7.69577 6.67438 
26 1 1.90685 8.70523 6.67376 
27 1 2.77067 9.57149 6.67236 
31 1 5.64977 12.4482 6.68077 
32 1 4.64202 11.439 6.67236 
33 1 3.77545 10.5757 6.67107 
37 1 6.66888 12.4441 5.64853 
38 1 6.6716 11.436 4.63625 
39 1 6.67062 10.5702 3.77102 
43 1 6.67188 7.69071 0.895279 
44 1 6.67945 8.70592 1.90039 
45 1 6.6697 9.56689 2.76995 
28 1 5.65015 7.68443 13.4615 
29 1 4.64134 8.70032 13.4693 
30 1 3.77918 9.56626 13.4737 
34 1 0.901154 12.4441 13.4716 
35 1 1.90734 11.4366 13.4716 
36 1 2.77277 10.5722 13.4704 
52 1 5.65502 13.4717 7.7054 
53 1 4.64422 13.4746 8.70898 
54 1 3.7745 13.4735 9.56924 
58 1 0.897724 13.4726 12.4481 
59 1 1.90564 13.4725 11.4408 
60 1 2.7701 13.474 10.5751 
13 1 7.69554 6.66822 0.891008 
14 1 8.7032 6.67126 1.90096 
15 1 9.56676 6.67244 2.76632 
19 1 12.4444 6.67201 5.64456 
20 1 11.4369 6.67307 4.63736 
21 1 10.5709 6.67229 3.77315 
61 1 12.4465 5.64671 6.67191 
62 1 11.4396 4.64065 6.67287 
63 1 10.573 3.77682 6.6716 
67 1 7.70117 0.888748 6.67448 
68 1 8.70892 1.90263 6.66775 
69 1 9.57108 2.7702 6.67248 
4 1 13.474 5.64952 7.69709 
5 1 13.4733 4.64074 8.70688 
6 1 13.471 3.77423 9.57072 
10 1 13.4715 0.897144 12.4488 
11 1 13.4724 1.90513 11.4386 
12 1 13.4715 2.77022 10.5733 
64 1 7.69572 5.64389 13.4685 
65 1 8.70258 4.63932 13.4697 
66 1 9.56916 3.77522 13.4711 
70 1 12.4445 0.900941 13.4717 
71 1 11.4355 1.90868 13.474 
72 1 10.5699 2.77375 13.471 
16 1 7.69905 13.4631 5.64448 
17 1 8.70728 13.4701 4.63963 
18 1 9.5708 13.4706 3.77294 
22 1 12.4469 13.4721 0.894199 
23 1 11.4421 13.4786 1.90649 
24 1 10.5729 13.4686 2.7674 
40 1 13.4718 7.69616 5.64847 
41 1 13.4728 8.70462 4.6418 
42 1 13.4712 9.56915 3.77637 
46 1 13.4733 12.4482 0.896071 
47 1 13.4729 11.4398 1.9033 
48 1 13.4711 10.5752 2.76863 
ITEM: TIMESTEP
60
ITEM: NUMBER OF ATOMS
74
ITEM: BOX BOUNDS pp pp pp
0.0000000000000000e+00 1.3600000000000000e+01
0.0000000000000000e+00 1.3600000000000000e+01
0.0000000000000000e+00 1.3600000000000000e+01
ITEM: ATOMS id type x y z 
1 1 6.66107 0.919563 7.66929 
2 1 6.69856 2.05659 8.55302 
3 1 6.72354 2.98965 9.3311 
7 1 6.67883 5.64241 12.4186 
8 1 6.67099 4.62181 11.4264 
9 1 6.65058 3.60544 10.6972 
49 1 5.64951 6.67107 12.4412 
50 1 4.64269 6.66513 11.4401 
51 1 3.77694 6.6728 10.576 
55 1 0.898415 6.67319 7.69732 
56 1 1.90796 6.67402 8.70616 
57 1 2.77195 6.67173 9.57169 
73 2 6.26361 1.49325 10.8865 
74 3 6.39724 2.1138 11.5739 
25 1 0.898355 7.69866 6.67282 
26 1 1.90913 8.70482 6.67554 
27 1 2.77068 9.5731 6.67098 
31 1 5.65015 12.4475 6.68432 
32 1 4.64233 11.4398 6.67421 
33 1 3.77554 10.5758 6.67181 
37 1 6.66647 12.4422 5.65105 
38 1 6.66974 11.4356 4.63779 
39 1 6.67048 10.5719 3.77105 
43 1 6.67641 7.69554 0.891931 
44 1 6.67699 8.69326 1.91313 
45 1 6.67103 9.57239 2.7629 
28 1 5.64979 7.68828 13.4653 
29 1 4.63971 8.70294 13.4693 
30 1 3.77587 9.56838 13.4721 
34 1 0.900607 12.4451 13.4713 
35 1 1.90556 11.4365 13.4736 
36 1 2.77316 10.5731 13.4705 
52 1 5.65918 13.4814 7.70342 
53 1 4.64523 13.4782 8.70905 
54 1 3.77697 13.4741 9.56986 
58 1 0.898288 13.4727 12.4479 
59 1 1.90562 13.4717 11.4402 
60 1 2.77012 13.4743 10.5746 
13 1 7.69509 6.6664 0.888743 
14 1 8.70328 6.67368 1.90355 
15 1 9.56822 6.67034 2.76692 
19 1 12.4457 6.67283 5.64537 
20 1 11.438 6.67409 4.63758 
21 1 10.5721 6.67186 3.77371 
61 1 12.4479 5.64856 6.67182 
62 1 11.4406 4.6419 6.67311 
63 1 10.5741 3.77777 6.672 
67 1 7.69989 0.888569 6.66945 
68 1 8.71251 1.90174 6.66337 
69 1 9.57168 2.77125 6.67265 
4 1 13.4734 5.64807 7.69853 
5 1 13.4742 4.64029 8.70685 
6 1 13.4708 3.77402 9.57077 
10 1 13.4722 0.898009 12.4473 
11 1 13.4727 1.90529 11.4381 
12 1 13.4711 2.77104 10.5731 
64 1 7.69426 5.64336 13.4665 
65 1 8.69966 4.63793 13.4658 
66 1 9.56838 3.7766 13.4721 
70 1 12.4481 0.898817 13.4728 
71 1 11.435 1.90412 13.474 
72 1 10.5732 2.77351 13.4715 
16 1 7.69987 13.4575 5.64221 
17 1 8.70775 13.4665 4.63833 
18 1 9.5727 13.4703 3.77274 
22 1 12.4522 13.474 0.897747 
23 1 11.4305 13.4769 1.89464 
24 1 10.5787 13.4702 2.773 
40 1 13.4723 7.69813 5.64703 
41 1 13.473 8.70562 4.64085 
42 1 13.4711 9.57006 3.77505 
46 1 13.4741 12.4456 0.897855 
47 1 13.4735 11.4383 1.90438 
48 1 13.4708 10.5741 2.77048 
ITEM: TIMESTEP
70
ITEM: NUMBER OF ATOMS
74
ITEM: BOX BOUNDS pp pp pp
0.0000000000000000e+00 1.3600000000000000e+01
0.0000000000000000e+00 1.3600000000000000e+01
0.0000000000000000e+00 1.3600000000000000e+01
ITEM: ATOMS id type x y z 
1 1 6.65956 0.925043 7.66611 
2 1 6.69739 2.06881 8.55338 
3 1 6.7212 2.99433 9.33198 
7 1 6.68409 5.64818 12.4076 
8 1 6.66728 4.6239 11.4197 
9 1 6.64588 3.5727 10.7376 
49 1 5.65314 6.6725 12.4383 
50 1 4.64459 6.66088 11.4393 
51 1 3.77731 6.67414 10.5766 
55 1 0.899193 6.67356 7.69765 
56 1 1.90775 6.67408 8.70601 
57 1 2.77164 6.67219 9.57212 
73 2 6.26007 1.47627 10.903 
74 3 6.401 2.12841 11.5538 
25 1 0.898684 7.69892 6.67288 
26 1 1.90918 8.70512 6.67522 
27 1 2.77142 9.5738 6.6712 
31 1 5.65052 12.4484 6.68583 
32 1 4.64351 11.4405 6.67564 
33 1 3.77674 10.5776 6.67215 
37 1 6.6662 12.4412 5.65214 
38 1 6.66881 11.4343 4.63741 
39 1 6.66947 10.5726 3.7708 
43 1 6.67447 7.69303 0.894474 
44 1 6.68034 8.69689 1.90531 
45 1 6.6699 9.56818 2.7658 
28 1 5.65112 7.68821 13.4643 
29 1 4.64018 8.70096 13.4727 
30 1 3.77685 9.56816 13.4698 
34 1 0.899333 12.446 13.4717 
35 1 1.90686 11.4359 13.4737 
36 1 2.7726 10.573 13.4706 
52 1 5.66102 13.4872 7.70219 
53 1 4.64713 13.482 8.70916 
54 1 3.77783 13.4743 9.56957 
58 1 0.898733 13.4726 12.4473 
59 1 1.90723 13.4705 11.4397 
60 1 2.77055 13.4746 10.5738 
13 1 7.69469 6.66404 0.886604 
14 1 8.70244 6.67194 1.90161 
15 1 9.56753 6.6707 2.76711 
19 1 12.4458 6.67345 5.64531 
20 1 11.4375 6.67436 4.63627 
21 1 10.5719 6.67161 3.77313 
61 1 12.4481 5.64903 6.67186 
62 1 11.44 4.64141 6.6731 
63 1 10.5744 3.7779 6.67249 
67 1 7.69753 0.889299 6.66815 
68 1 8.71176 1.90162 6.66256 
69 1 9.57256 2.77093 6.67157 
4 1 13.4736 5.6485 7.69792 
5 1 13.4742 4.64123 8.70648 
6 1 13.4709 3.77415 9.5704 
10 1 13.4726 0.897626 12.4473 
11 1 13.4728 1.9053 11.4381 
12 1 13.471 2.77031 10.5738 
64 1 7.69351 5.64326 13.4632 
65 1 8.6986 4.63943 13.4652 
66 1 9.56697 3.77662 13.4711 
70 1 12.4477 0.900699 13.4728 
71 1 11.432 1.9033 13.4749 
72 1 10.5743 2.77445 13.4717 
16 1 7.69989 13.4563 5.64277 
17 1 8.70743 13.4648 4.63858 
18 1 9.5731 13.4692 3.77305 
22 1 12.4488 13.473 0.895603 
23 1 11.4363 13.4793 1.89929 
24 1 10.5763 13.4697 2.76918 
40 1 13.4726 7.69766 5.64778 
41 1 13.473 8.70571 4.64081 
42 1 13.4711 9.57022 3.7749 
46 1 13.4741 12.4461 0.897364 
47 1 13.4734 11.4386 1.90438 
48 1 13.4709 10.5743 2.77015 
ITEM: TIMESTEP
80
ITEM: NUMBER OF ATOMS
74
ITEM: BOX BOUNDS pp pp pp
0.0000000000000000e+00 1.3600000000000000e+01
0.0000000000000000e+00 1.3600000000000000e+01
0.0000000000000000e+00 1.3600000000000000e+01
ITEM: ATOMS id type x y z 
1 1 6.65711 0.935355 7.66194 
2 1 6.69734 2.08607 8.55229 
3 1 6.71624 3.00185 9.33871 
7 1 6.69426 5.65245 12.3911 
8 1 6.66849 4.6239 11.4108 
9 1 6.63777 3.53955 10.7802 
49 1 5.65512 6.67332 12.4372 
50 1 4.65103 6.66522 11.4302 
51 1 3.77308 6.67068 10.5783 
55 1 0.899559 6.67387 7.69742 
56 1 1.90707 6.67438 8.70595 
57 1 2.77067 6.67273 9.57244 
73 2 6.25425 1.44691 10.9217 
74 3 6.40479 2.13205 11.5417 
25 1 0.899952 7.69964 6.6726 
26 1 1.90912 8.70755 6.67428 
27 1 2.7728 9.57415 6.67169 
31 1 5.6521 12.4509 6.68891 
32 1 4.64517 11.4428 6.67633 
33 1 3.77843 10.5793 6.6739 
37 1 6.66578 12.4396 5.65345 
38 1 6.66743 11.4339 4.63854 
39 1 6.6684 10.5724 3.77085 
43 1 6.67463 7.6915 0.892823 
44 1 6.67742 8.69837 1.90328 
45 1 6.6721 9.56592 2.76569 
28 1 5.65045 7.68984 13.4674 
29 1 4.64404 8.70301 13.4737 
30 1 3.7763 9.56554 13.469 
34 1 0.899805 12.4468 13.4716 
35 1 1.90587 11.4352 13.4739 
36 1 2.77323 10.5725 13.4704 
52 1 5.66385 13.496 7.69964 
53 1 4.65003 13.4871 8.70943 
54 1 3.77964 13.4755 9.56833 
58 1 0.899118 13.4722 12.4472 
59 1 1.90823 13.4696 11.4388 
60 1 2.77213 13.4743 10.5729 
13 1 7.69498 6.66122 0.885079 
14 1 8.7022 6.66867 1.89987 
15 1 9.56582 6.6711 2.76609 
19 1 12.4453 6.67411 5.64519 
20 1 11.4382 6.67462 4.63461 
21 1 10.5707 6.67158 3.77249 
61 1 12.4483 5.65012 6.67142 
62 1 11.44 4.64157 6.67304 
63 1 10.5744 3.77725 6.67305 
67 1 7.69317 0.891053 6.66684 
68 1 8.71094 1.90149 6.66187 
69 1 9.57223 2.76959 6.66969 
4 1 13.473 5.64881 7.69759 
5 1 13.4763 4.64193 8.70665 
6 1 13.4699 3.77451 9.56974 
10 1 13.4729 0.897358 12.4473 
11 1 13.4729 1.90471 11.4385 
12 1 13.4709 2.77014 10.5739 
64 1 7.69219 5.64412 13.457 
65 1 8.69786 4.64045 13.4631 
66 1 9.56527 3.77679 13.4702 
70 1 12.4456 0.900321 13.4706 
71 1 11.4346 1.90645 13.4788 
72 1 10.5714 2.77356 13.4703 
16 1 7.69952 13.4546 5.64411 
17 1 8.70706 13.4626 4.63898 
18 1 9.57234 13.4678 3.77363 
22 1 12.4486 13.4736 0.894945 
23 1 11.4383 13.4763 1.90111 
24 1 10.5753 13.472 2.76814 
40 1 13.4729 7.69741 5.64847 
41 1 13.4731 8.70607 4.64057 
42 1 13.4711 9.57043 3.77471 
46 1 13.4736 12.4473 0.896259 
47 1 13.4732 11.4388 1.90427 
48 1 13.471 10.5745 2.77004 
ITEM: TIMESTEP
86
ITEM: NUMBER OF ATOMS
74
ITEM: BOX BOUNDS pp pp pp
0.0000000000000000e+00 1.3600000000000000e+01
0.0000000000000000e+00 1.3600000000000000e+01
0.0000000000000000e+00 1.3600000000000000e+01
ITEM: ATOMS id type x y z 
1 1 6.6554 0.941387 7.6607 
2 1 6.69641 2.09423 8.55089 
3 1 6.71346 3.00296 9.34432 
7 1 6.69835 5.65566 12.3831 
8 1 6.66899 4.62247 11.4106 
9 1 6.63512 3.53044 10.7906 
49 1 5.65738 6.67564 12.4338 
50 1 4.65117 6.66635 11.4301 
51 1 3.77363 6.66996 10.5774 
55 1 0.899583 6.67433 7.69702 
56 1 1.90743 6.67454 8.70658 
57 1 2.76944 6.67273 9.57219 
73 2 6.25161 1.43241 10.9298 
74 3 6.4052 2.12409 11.5431 
25 1 0.900478 7.70047 6.67216 
26 1 1.90994 8.70886 6.67384 
27 1 2.77311 9.57461 6.67192 
31 1 5.65267 12.4524 6.68989 
32 1 4.64603 11.4451 6.6787 
33 1 3.77948 10.5798 6.67412 
37 1 6.66542 12.4395 5.65409 
38 1 6.66832 11.4336 4.63998 
39 1 6.66754 10.5718 3.77025 
43 1 6.67484 7.6908 0.892244 
44 1 6.677 8.69916 1.90367 
45 1 6.67206 9.56499 2.76514 
28 1 5.65057 7.69063 13.4672 
29 1 4.6434 8.70162 13.4726 
30 1 3.77773 9.56542 13.4696 
34 1 0.899716 12.4471 13.4715 
35 1 1.90541 11.436 13.4734 
36 1 2.77336 10.5715 13.4705 
52 1 5.66522 13.5009 7.69888 
53 1 4.65111 13.49 8.70914 
54 1 3.78091 13.4765 9.56783 
58 1 0.899203 13.4722 12.447 
59 1 1.90846 13.4699 11.4384 
60 1 2.77308 13.4737 10.5726 
13 1 7.69543 6.65987 0.88456 
14 1 8.70238 6.66725 1.89924 
15 1 9.56452 6.67064 2.76496 
19 1 12.4454 6.67434 5.64502 
20 1 11.4385 6.67484 4.6348 
21 1 10.5701 6.67182 3.7717 
61 1 12.4481 5.65052 6.67111 
62 1 11.4403 4.642 6.67297 
63 1 10.5747 3.77685 6.67321 
67 1 7.69121 0.892329 6.66596 
68 1 8.71069 1.90174 6.6613 
69 1 9.57171 2.76904 6.66877 
4 1 13.4734 5.6487 7.69711 
5 1 13.4752 4.6422 8.70725 
6 1 13.4707 3.775 9.569 
10 1 13.4733 0.896866 12.4475 
11 1 13.473 1.90401 11.4391 
12 1 13.4707 2.77019 10.5736 
64 1 7.69241 5.6453 13.4535 
65 1 8.69759 4.64064 13.4615 
66 1 9.56475 3.77666 13.4699 
70 1 12.4449 0.900171 13.4705 
71 1 11.4359 1.90755 13.4787 
72 1 10.5701 2.77289 13.4706 
16 1 7.69898 13.454 5.64492 
17 1 8.70724 13.4613 4.639 
18 1 9.57149 13.4676 3.77423 
22 1 12.4486 13.4739 0.894783 
23 1 11.4386 13.4757 1.90152 
24 1 10.5748 13.4722 2.76833 
40 1 13.4729 7.69726 5.64859 
41 1 13.4732 8.70632 4.64039 
42 1 13.4711 9.5704 3.77476 
46 1 13.4737 12.4476 0.895829 
47 1 13.4732 11.4391 1.904 
48 1 13.4711 10.5746 2.76992 
ITEM: TIMESTEP
90
ITEM: NUMBER OF ATOMS
74
ITEM: BOX BOUNDS pp pp pp
0.0000000000000000e+00 1.3600000000000000e+01
0.0000000000000000e+00 1.3600000000000000e+01
0.0000000000000000e+00 1.3600000000000000e+01
ITEM: ATOMS id type x y z 
1 1 6.65541 0.941774 7.66061 
2 1 6.69623 2.0945 8.55066 
3 1 6.71337 3.00319 9.34496 
7 1 6.69846 5.65615 12.3829 
8 1 6.66897 4.62154 11.4102 
9 1 6.63498 3.53041 10.7913 
49 1 5.65783 6.67579 12.4333 
50 1 4.65098 6.66598 11.4307 
51 1 3.77385 6.67019 10.577 
55 1 0.89943 6.67436 7.69683 
56 1 1.9067 6.67457 8.70588 
57 1 2.77007 6.67269 9.57286 
73 2 6.25146 1.43161 10.9303 
74 3 6.40524 2.12377 11.5431 
25 1 0.900435 7.70037 6.67219 
26 1 1.90966 8.70863 6.67384 
27 1 2.77346 9.57493 6.67192 
31 1 5.65249 12.4527 6.68993 
32 1 4.64604 11.4445 6.6791 
33 1 3.77969 10.5803 6.674 
37 1 6.66555 12.4392 5.65446 
38 1 6.66791 11.4335 4.63894 
39 1 6.66773 10.5719 3.77098 
43 1 6.67505 7.69077 0.892438 
44 1 6.67701 8.69851 1.90298 
45 1 6.67204 9.56562 2.76579 
28 1 5.65055 7.69028 13.467 
29 1 4.64344 8.70181 13.4724 
30 1 3.77747 9.56555 13.4697 
34 1 0.899683 12.4469 13.4714 
35 1 1.9064 11.4356 13.4737 
36 1 2.77264 10.5719 13.4704 
52 1 5.66541 13.5009 7.69893 
53 1 4.65095 13.4905 8.70878 
54 1 3.7811 13.4764 9.568 
58 1 0.899104 13.4722 12.4466 
59 1 1.90902 13.4702 11.4385 
60 1 2.77278 13.4736 10.5725 
13 1 7.69535 6.65971 0.884336 
14 1 8.70198 6.66718 1.89878 
15 1 9.56496 6.67061 2.76542 
19 1 12.4456 6.67421 5.64478 
20 1 11.4377 6.67527 4.63468 
21 1 10.5706 6.6716 3.77188 
61 1 12.4482 5.65049 6.67126 
62 1 11.4401 4.64173 6.67295 
63 1 10.5749 3.77706 6.67322 
67 1 7.69107 0.892355 6.666 
68 1 8.71042 1.90168 6.66115 
69 1 9.57193 2.76916 6.66878 
4 1 13.4735 5.64893 7.69718 
5 1 13.4753 4.64233 8.70672 
6 1 13.4706 3.77481 9.56941 
10 1 13.4732 0.896908 12.4475 
11 1 13.473 1.90438 11.4387 
12 1 13.4707 2.76986 10.574 
64 1 7.69236 5.64529 13.4533 
65 1 8.69772 4.64076 13.4612 
66 1 9.56455 3.77666 13.47 
70 1 12.4452 0.900446 13.4707 
71 1 11.435 1.90723 13.4783 
72 1 10.5706 2.77307 13.4709 
16 1 7.69917 13.4539 5.6451 
17 1 8.70654 13.4617 4.63918 
18 1 9.572 13.4674 3.774 
22 1 12.4485 13.4739 0.894794 
23 1 11.4386 13.4758 1.90167 
24 1 10.5748 13.4721 2.76821 
40 1 13.4731 7.69734 5.64868 
41 1 13.4732 8.70618 4.64056 
42 1 13.4711 9.57048 3.77467 
46 1 13.4736 12.4476 0.895953 
47 1 13.4732 11.4391 1.90405 
48 1 13.4711 10.5747 2.76985 
ITEM: TIMESTEP
100
ITEM: NUMBER OF ATOMS
74
ITEM: BOX BOUNDS pp pp pp
0.0000000000000000e+00 1.3600000000000000e+01
0.0000000000000000e+00 1.3600000000000000e+01
0.0000000000000000e+00 1.3600000000000000e+01
ITEM: ATOMS id type x y z 
1 1 6.64754 0.977694 7.65178 
2 1 6.68768 2.13397 8.54341 
3 1 6.69869 3.00946 9.37477 
7 1 6.71896 5.67347 12.3456 
8 1 6.67054 4.59899 11.4148 
9 1 6.62054 3.48023 10.8407 
49 1 5.67288 6.68698 12.4151 
50 1 4.65281 6.6811 11.4282 
51 1 3.77572 6.66378 10.5727 
55 1 0.898332 6.67777 7.69334 
56 1 1.9044 6.67521 8.70481 
57 1 2.76706 6.67095 9.57389 
73 2 6.23701 1.35171 10.9812 
74 3 6.40711 2.08171 11.5538 
25 1 0.903012 7.70492 6.67053 
26 1 1.91378 8.7144 6.67149 
27 1 2.77842 9.57924 6.67254 
31 1 5.65664 12.4644 6.70198 
32 1 4.64808 11.4555 6.68317 
33 1 3.78671 10.586 6.68189 
37 1 6.66666 12.4337 5.66382 
38 1 6.6563 11.4345 4.63913 
39 1 6.67121 10.5667 3.773 
43 1 6.67694 7.68761 0.891512 
44 1 6.67561 8.69712 1.90101 
45 1 6.67178 9.56344 2.76505 
28 1 5.65353 7.68779 13.461 
29 1 4.64321 8.70004 13.4658 
30 1 3.77873 9.56414 13.4728 
34 1 0.899646 12.4474 13.4689 
35 1 1.9092 11.4365 13.4725 
36 1 2.77085 10.57 13.4713 
52 1 5.67085 13.5251 7.69395 
53 1 4.65476 13.5086 8.70411 
54 1 3.78903 13.4823 9.56748 
58 1 0.898848 13.4735 12.4436 
59 1 1.91397 13.4694 11.4372 
60 1 2.77611 13.4721 10.5703 
13 1 7.6946 6.6533 0.877085 
14 1 8.70173 6.65949 1.89354 
15 1 9.56185 6.66744 2.76275 
19 1 12.4461 6.67433 5.64311 
20 1 11.4347 6.67836 4.63432 
21 1 10.5701 6.67152 3.76923 
61 1 12.4494 5.65268 6.6701 
62 1 11.44 4.64329 6.67392 
63 1 10.5779 3.77497 6.67296 
67 1 7.68136 0.900335 6.66092 
68 1 8.70794 1.90559 6.65539 
69 1 9.57068 2.76705 6.66453 
4 1 13.4732 5.65145 7.69578 
5 1 13.4728 4.64049 8.70345 
6 1 13.4725 3.77745 9.56981 
10 1 13.4737 0.894973 12.4487 
11 1 13.4732 1.90332 11.4389 
12 1 13.4706 2.7693 10.5744 
64 1 7.69664 5.65279 13.4331 
65 1 8.69734 4.6433 13.4505 
66 1 9.55989 3.77617 13.4691 
70 1 12.4461 0.901178 13.4719 
71 1 11.4367 1.9113 13.4685 
72 1 10.5661 2.77043 13.4766 
16 1 7.69872 13.4473 5.65191 
17 1 8.70418 13.4719 4.63868 
18 1 9.5695 13.4567 3.77735 
22 1 12.4487 13.475 0.895069 
23 1 11.4382 13.4732 1.90343 
24 1 10.5731 13.4723 2.7696 
40 1 13.4744 7.69728 5.65001 
41 1 13.4736 8.7066 4.64052 
42 1 13.4713 9.57054 3.77478 
46 1 13.4738 12.4494 0.893846 
47 1 13.473 11.4406 1.90272 
48 1 13.4711 10.5761 2.76843 
ITEM: TIMESTEP
110
ITEM: NUMBER OF ATOMS
74
ITEM: BOX BOUNDS pp pp pp
0.0000000000000000e+00 1.3600000000000000e+01
0.0000000000000000e+00 1.3600000000000000e+01
0.0000000000000000e+00 1.3600000000000000e+01
ITEM: ATOMS id type x y z 
1 1 6.63879 1.0169 7.64241 
2 1 6.67724 2.17382 8.54023 
3 1 6.68111 3.00919 9.40892 
7 1 6.7377 5.68269 12.3076 
8 1 6.67094 4.5671 11.4272 
9 1 6.6068 3.42912 10.8791 
49 1 5.68842 6.70342 12.3961 
50 1 4.65515 6.69318 11.4226 
51 1 3.77801 6.66168 10.5696 
55 1 0.896808 6.6819 7.68968 
56 1 1.90268 6.67525 8.70395 
57 1 2.76319 6.66782 9.57348 
73 2 6.22293 1.27152 11.04 
74 3 6.40764 2.03507 11.5682 
25 1 0.906312 7.70938 6.66903 
26 1 1.91775 8.7212 6.669 
27 1 2.78446 9.58422 6.67406 
31 1 5.66016 12.4775 6.70745 
32 1 4.65548 11.4623 6.6943 
33 1 3.79176 10.5964 6.68755 
37 1 6.66486 12.4343 5.6689 
38 1 6.65185 11.4222 4.6483 
39 1 6.66908 10.57 3.77352 
43 1 6.6769 7.68328 0.886694 
44 1 6.67566 8.69297 1.90007 
45 1 6.67189 9.56037 2.76208 
28 1 5.66126 7.68691 13.4546 
29 1 4.64388 8.69579 13.4605 
30 1 3.78074 9.56142 13.4747 
34 1 0.899874 12.4494 13.467 
35 1 1.90936 11.4367 13.4691 
36 1 2.77098 10.5689 13.4738 