ITEM: TIMESTEP
0
ITEM: NUMBER OF ATOMS
58
ITEM: BOX BOUNDS pp pp pp
0.0000000000000000e+00 3.2808000000000000e+01
0.0000000000000000e+00 1.7780000000000001e+01
0.0000000000000000e+00 2.4729999999999999e+00
ITEM: ATOMS id type x y z 
13 1 7.043 0.849 2.464 
29 1 7.397 1.432 1.228 
37 1 8.035 2.733 1.228 
1 1 6.173 17.398 2.464 
5 1 5.371 17.398 1.228 
9 1 3.973 17.398 1.228 
16 1 7.043 16.167 2.464 
32 1 7.397 15.584 1.228 
40 1 8.035 14.283 1.228 
45 1 3.236 17.398 2.464 
49 1 1.81 17.398 2.464 
53 1 1.083 17.398 1.228 
57 2 7.224 17.339 1.616 
58 3 8.2 17.339 1.616 
4 1 10.968 8.508 2.464 
8 1 11.771 8.508 1.228 
12 1 13.168 8.508 1.228 
18 1 10.098 7.277 2.464 
21 1 8.308 3.392 2.464 
26 1 8.833 4.734 2.464 
34 1 9.745 6.694 1.228 
42 1 9.106 5.393 1.228 
48 1 13.906 8.508 2.464 
52 1 15.331 8.508 2.464 
56 1 16.058 8.508 1.228 
19 1 10.098 9.739 2.464 
24 1 8.308 13.624 2.464 
27 1 8.833 12.282 2.464 
35 1 9.745 10.322 1.228 
43 1 9.106 11.623 1.228 
3 1 22.577 8.508 2.464 
7 1 21.775 8.508 1.228 
11 1 20.377 8.508 1.228 
20 1 23.447 7.277 2.464 
36 1 23.801 6.694 1.228 
44 1 24.439 5.393 1.228 
47 1 19.64 8.508 2.464 
51 1 18.214 8.508 2.464 
55 1 17.487 8.508 1.228 
17 1 23.447 9.739 2.464 
33 1 23.801 10.322 1.228 
41 1 24.439 11.623 1.228 
15 1 26.502 0.849 2.464 
23 1 25.237 3.392 2.464 
28 1 24.712 4.734 2.464 
31 1 26.149 1.432 1.228 
39 1 25.511 2.733 1.228 
2 1 27.373 17.398 2.464 
6 1 28.175 17.398 1.228 
10 1 29.572 17.398 1.228 
14 1 26.502 16.167 2.464 
22 1 25.237 13.624 2.464 
25 1 24.712 12.282 2.464 
30 1 26.149 15.584 1.228 
38 1 25.511 14.283 1.228 
46 1 30.31 17.398 2.464 
50 1 31.735 17.398 2.464 
54 1 32.462 17.398 1.228 
ITEM: TIMESTEP
10
ITEM: NUMBER OF ATOMS
58
ITEM: BOX BOUNDS pp pp pp
0.0000000000000000e+00 3.2808000000000000e+01
0.0000000000000000e+00 1.7780000000000001e+01
0.0000000000000000e+00 2.4729999999999999e+00
ITEM: ATOMS id type x y z 
13 1 6.95828 0.918127 2.47935 
29 1 7.21212 1.51601 1.21694 
37 1 8.07568 2.76165 1.22854 
1 1 6.25122 17.4029 2.45294 
5 1 5.32606 17.3976 1.22634 
9 1 4.00486 17.3974 1.22757 
16 1 6.94616 16.0655 2.48195 
32 1 7.18361 15.4589 1.22359 
40 1 8.07385 14.2425 1.22917 
45 1 3.22276 17.398 2.46408 
49 1 1.78535 17.398 2.46427 
53 1 1.10905 17.398 1.22771 
57 2 7.29796 17.3736 1.60496 
58 3 8.71803 17.3788 1.61785 
4 1 10.9622 8.50735 2.46423 
8 1 11.7868 8.5075 1.2277 
12 1 13.201 8.50788 1.22773 
18 1 10.0699 7.31991 2.46429 
21 1 8.33125 3.40999 2.46469 
26 1 8.81576 4.70808 2.46432 
34 1 9.71702 6.71654 1.22775 
42 1 9.06197 5.37636 1.22773 
48 1 13.9089 8.50798 2.46429 
52 1 15.2975 8.508 2.46428 
56 1 16.0467 8.508 1.22772 
19 1 10.0685 9.69739 2.46429 
24 1 8.31823 13.6489 2.46586 
27 1 8.82061 12.2944 2.46435 
35 1 9.71881 10.2954 1.22775 
43 1 9.06918 11.6214 1.22776 
3 1 22.5748 8.508 2.46423 
7 1 21.7529 8.508 1.2277 
11 1 20.3422 8.508 1.22773 
20 1 23.4916 7.29203 2.46429 
36 1 23.8452 6.68096 1.22775 
44 1 24.4534 5.43477 1.22773 
47 1 19.645 8.508 2.46429 
51 1 18.2425 8.508 2.46428 
55 1 17.4989 8.508 1.22772 
17 1 23.4916 9.72397 2.46429 
33 1 23.8452 10.335 1.22775 
41 1 24.4534 11.5812 1.22773 
15 1 26.4578 0.833908 2.46429 
23 1 25.2357 3.36535 2.46426 
28 1 24.7158 4.75374 2.46427 
31 1 26.1038 1.44716 1.22775 
39 1 25.494 2.69792 1.22773 
2 1 27.3751 17.398 2.46423 
6 1 28.2009 17.398 1.2277 
10 1 29.6059 17.398 1.22773 
14 1 26.4578 16.1821 2.46429 
22 1 25.2357 13.6507 2.46426 
25 1 24.7158 12.2623 2.46427 
30 1 26.1038 15.5688 1.22775 
38 1 25.494 14.3181 1.22773 
46 1 30.2917 17.398 2.46429 
50 1 31.7235 17.398 2.46428 
54 1 32.4876 17.398 1.22772 
ITEM: TIMESTEP
20
ITEM: NUMBER OF ATOMS
58
ITEM: BOX BOUNDS pp pp pp
0.0000000000000000e+00 3.2808000000000000e+01
0.0000000000000000e+00 1.7780000000000001e+01
0.0000000000000000e+00 2.4729999999999999e+00
ITEM: ATOMS id type x y z 
13 1 6.80203 1.08133 2.52518 
29 1 7.09507 1.71466 1.28774 
37 1 8.10288 2.72483 1.23169 
1 1 6.22265 17.3835 2.40458 
5 1 5.37534 17.4037 1.19798 
9 1 3.99215 17.3966 1.22761 
16 1 6.76855 15.9121 2.523 
32 1 7.10076 15.2358 1.30022 
40 1 8.04766 14.2845 1.2323 
45 1 3.22682 17.3975 2.46303 
49 1 1.78097 17.3981 2.46418 
53 1 1.10366 17.398 1.2277 
57 2 7.75943 17.3802 1.47206 
58 3 8.96924 17.3692 1.58252 
4 1 10.9994 8.48216 2.46425 
8 1 11.7629 8.4957 1.22778 
12 1 13.1847 8.50959 1.22777 
18 1 10.0517 7.34967 2.46425 
21 1 8.4214 3.42335 2.4661 
26 1 8.82132 4.72364 2.46458 
34 1 9.64041 6.76791 1.22776 
42 1 9.00979 5.42917 1.22808 
48 1 13.9669 8.50862 2.46423 
52 1 15.2972 8.50815 2.46424 
56 1 16.037 8.508 1.22776 
19 1 9.99699 9.72353 2.46427 
24 1 8.42697 13.6477 2.46814 
27 1 8.83979 12.2513 2.46482 
35 1 9.62949 10.288 1.2278 
43 1 9.03573 11.5455 1.22838 
3 1 22.5628 8.508 2.46425 
7 1 21.7782 8.508 1.22776 
11 1 20.3599 8.508 1.22777 
20 1 23.5271 7.30083 2.46424 
36 1 23.9144 6.70247 1.22775 
44 1 24.5107 5.44099 1.22776 
47 1 19.589 8.508 2.46423 
51 1 18.2435 8.508 2.46424 
55 1 17.5187 8.508 1.22776 
17 1 23.5271 9.71517 2.46424 
33 1 23.9144 10.3135 1.22775 
41 1 24.5107 11.575 1.22776 
15 1 26.417 0.825088 2.46424 
23 1 25.2022 3.37219 2.46425 
28 1 24.7397 4.77246 2.46425 
31 1 26.037 1.42246 1.22775 
39 1 25.4442 2.67241 1.22776 
2 1 27.3504 17.398 2.46426 
6 1 28.1685 17.398 1.22776 
10 1 29.5696 17.398 1.22777 
14 1 26.417 16.1909 2.46424 
22 1 25.2022 13.6438 2.46425 
25 1 24.7397 12.2435 2.46425 
30 1 26.037 15.5935 1.22775 
38 1 25.4442 14.3436 1.22776 
46 1 30.2975 17.398 2.46423 
50 1 31.7278 17.398 2.46423 
54 1 32.4757 17.398 1.22776 
ITEM: TIMESTEP
30
ITEM: NUMBER OF ATOMS
58
ITEM: BOX BOUNDS pp pp pp
0.0000000000000000e+00 3.2808000000000000e+01
0.0000000000000000e+00 1.7780000000000001e+01
0.0000000000000000e+00 2.4729999999999999e+00
ITEM: ATOMS id type x y z 
13 1 6.7506 1.06511 2.52995 
29 1 7.05729 1.69074 1.29556 
37 1 8.11661 2.71966 1.23513 
1 1 6.25788 17.3825 2.45073 
5 1 5.35392 17.4072 1.21351 
9 1 3.99321 17.3982 1.22502 
16 1 6.73217 15.9047 2.53116 
32 1 7.04578 15.2904 1.29523 
40 1 8.05473 14.2743 1.23737 
45 1 3.24642 17.3967 2.46156 
49 1 1.78397 17.3981 2.46412 
53 1 1.06208 17.3981 1.2276 
57 2 8.06063 17.3697 1.40217 
58 3 8.92768 17.3679 1.56066 
4 1 10.9654 8.50266 2.46428 
8 1 11.7568 8.50279 1.22777 
12 1 13.1934 8.51164 1.22774 
18 1 10.0384 7.34609 2.46428 
21 1 8.45315 3.37016 2.46992 
26 1 8.82746 4.73539 2.46496 
34 1 9.59458 6.78996 1.22778 
42 1 8.97503 5.44355 1.22835 
48 1 13.9562 8.50956 2.46425 
52 1 15.304 8.50822 2.46426 
56 1 16.0384 8.50792 1.22775 
19 1 10.0047 9.6998 2.46436 
24 1 8.46945 13.6868 2.47272 
27 1 8.85048 12.2515 2.46533 
35 1 9.59039 10.2764 1.22786 
43 1 8.99988 11.5364 1.22866 
3 1 22.5864 8.508 2.46427 
7 1 21.7978 8.508 1.22776 
11 1 20.3585 8.508 1.22774 
20 1 23.5372 7.30616 2.46425 
36 1 23.9415 6.72301 1.22774 
44 1 24.5363 5.46391 1.22775 
47 1 19.5985 8.508 2.46425 
51 1 18.2475 8.508 2.46426 
55 1 17.5127 8.50797 1.22775 
17 1 23.5372 9.70984 2.46425 
33 1 23.9415 10.293 1.22774 
41 1 24.5363 11.5521 1.22775 
15 1 26.3976 0.825054 2.46425 
23 1 25.1898 3.35753 2.46426 
28 1 24.7559 4.77665 2.46426 
31 1 26.0035 1.41338 1.22774 
39 1 25.4108 2.66876 1.22775 
2 1 27.3329 17.398 2.46427 
6 1 28.1596 17.398 1.22776 
10 1 29.5548 17.398 1.22774 
14 1 26.3976 16.1909 2.46425 
22 1 25.1898 13.6585 2.46426 
25 1 24.7559 12.2393 2.46426 
30 1 26.0035 15.6026 1.22774 
38 1 25.4108 14.3472 1.22775 
46 1 30.2906 17.398 2.46425 
50 1 31.7542 17.398 2.46425 
54 1 32.4951 17.398 1.22773 
ITEM: TIMESTEP
40
ITEM: NUMBER OF ATOMS
58
ITEM: BOX BOUNDS pp pp pp
0.0000000000000000e+00 3.2808000000000000e+01
0.0000000000000000e+00 1.7780000000000001e+01
0.0000000000000000e+00 2.4729999999999999e+00
ITEM: ATOMS id type x y z 
13 1 6.78146 1.0222 2.51559 
29 1 7.0761 1.68954 1.28194 
37 1 8.11811 2.70523 1.2392 
1 1 6.25758 17.3866 2.46991 
5 1 5.36218 17.3997 1.23671 
9 1 3.98199 17.4001 1.22464 
16 1 6.74909 15.9627 2.51535 
32 1 7.05544 15.2914 1.282 
40 1 8.0594 14.2821 1.24192 
45 1 3.24163 17.3957 2.46112 
49 1 1.78309 17.3978 2.46397 
53 1 1.03582 17.3982 1.22751 
57 2 8.04426 17.3698 1.38706 
58 3 8.97514 17.3679 1.5704 
4 1 10.9605 8.51276 2.46428 
8 1 11.7528 8.50728 1.22779 
12 1 13.1843 8.5126 1.22775 
18 1 10.02 7.32192 2.46433 
21 1 8.48904 3.35946 2.47455 
26 1 8.82736 4.71931 2.46559 
34 1 9.55145 6.78629 1.22784 
42 1 8.94662 5.44656 1.22899 
48 1 13.9523 8.51029 2.46424 
52 1 15.3053 8.50816 2.46425 
56 1 16.0418 8.50774 1.22775 
19 1 9.99597 9.70717 2.46447 
24 1 8.50638 13.6942 2.4778 
27 1 8.8542 12.276 2.46591 
35 1 9.56371 10.2633 1.228 
43 1 8.9696 11.5399 1.22921 
3 1 22.5967 8.508 2.46426 
7 1 21.8037 8.508 1.22776 
11 1 20.3745 8.508 1.22775 
20 1 23.5453 7.30379 2.46424 
36 1 23.9612 6.73271 1.22775 
44 1 24.5618 5.47655 1.22775 
47 1 19.6052 8.50801 2.46424 
51 1 18.2497 8.508 2.46425 
55 1 17.5137 8.50791 1.22775 
17 1 23.5453 9.71221 2.46424 
33 1 23.9612 10.2833 1.22775 
41 1 24.5618 11.5395 1.22775 
15 1 26.3909 0.821667 2.46424 
23 1 25.1746 3.35766 2.46425 
28 1 24.7706 4.77845 2.46425 
31 1 25.9837 1.40205 1.22775 
39 1 25.3849 2.66024 1.22775 
2 1 27.3295 17.398 2.46426 
6 1 28.1554 17.398 1.22776 
10 1 29.5515 17.398 1.22775 
14 1 26.3909 16.1943 2.46424 
22 1 25.1746 13.6583 2.46425 
25 1 24.7706 12.2375 2.46425 
30 1 25.9837 15.6139 1.22775 
38 1 25.3849 14.3558 1.22775 
46 1 30.2838 17.398 2.46424 
50 1 31.7513 17.398 2.46421 
54 1 32.4917 17.398 1.22772 
ITEM: TIMESTEP
50
ITEM: NUMBER OF ATOMS
58
ITEM: BOX BOUNDS pp pp pp
0.0000000000000000e+00 3.2808000000000000e+01
0.0000000000000000e+00 1.7780000000000001e+01
0.0000000000000000e+00 2.4729999999999999e+00
ITEM: ATOMS id type x y z 
13 1 6.85196 0.980634 2.50577 
29 1 7.09145 1.66846 1.26774 
37 1 8.13199 2.69216 1.2421 
1 1 6.22928 17.3911 2.49151 
5 1 5.35622 17.4024 1.25536 
9 1 3.96946 17.4005 1.22686 
16 1 6.81755 16.0042 2.50525 
32 1 7.05575 15.3117 1.26773 
40 1 8.07964 14.2872 1.24488 
45 1 3.22845 17.3957 2.46385 
49 1 1.76367 17.3974 2.46388 
53 1 1.02017 17.3984 1.22743 
57 2 8.08741 17.3693 1.37204 
58 3 8.98434 17.3675 1.57096 
4 1 10.9471 8.50935 2.46432 
8 1 11.7417 8.51029 1.22783 
12 1 13.1709 8.51265 1.22775 
18 1 9.99682 7.31494 2.4645 
21 1 8.53167 3.32146 2.47825 
26 1 8.8374 4.73028 2.46675 
34 1 9.52487 6.78697 1.22801 
42 1 8.90589 5.46732 1.23003 
48 1 13.9375 8.51087 2.46425 
52 1 15.3068 8.50802 2.46425 
56 1 16.0426 8.50739 1.22775 
19 1 9.98708 9.70068 2.46467 
24 1 8.5504 13.7083 2.48088 
27 1 8.86216 12.3042 2.46707 
35 1 9.53831 10.2371 1.2282 
43 1 8.92427 11.5456 1.23029 
3 1 22.6042 8.508 2.46425 
7 1 21.8121 8.508 1.22775 
11 1 20.3847 8.508 1.22775 
20 1 23.5556 7.30408 2.46425 
36 1 23.987 6.74363 1.22775 
44 1 24.5998 5.4868 1.22775 
47 1 19.6143 8.50803 2.46425 
51 1 18.2493 8.50801 2.46425 
55 1 17.5128 8.5078 1.22775 
17 1 23.5556 9.71192 2.46425 
33 1 23.987 10.2724 1.22775 
41 1 24.5998 11.5292 1.22775 
15 1 26.3802 0.821505 2.46425 
23 1 25.1537 3.35296 2.46425 
28 1 24.7923 4.78222 2.46425 
31 1 25.9574 1.3909 1.22775 
39 1 25.3494 2.64948 1.22775 
2 1 27.321 17.398 2.46425 
6 1 28.1439 17.398 1.22775 
10 1 29.5388 17.398 1.22775 
14 1 26.3802 16.1945 2.46425 
22 1 25.1537 13.663 2.46425 
25 1 24.7923 12.2338 2.46425 
30 1 25.9574 15.6251 1.22775 
38 1 25.3494 14.3665 1.22775 
46 1 30.2707 17.398 2.46424 
50 1 31.74 17.398 2.46417 
54 1 32.4798 17.3982 1.22767 
ITEM: TIMESTEP
60
ITEM: NUMBER OF ATOMS
58
ITEM: BOX BOUNDS pp pp pp
0.0000000000000000e+00 3.2808000000000000e+01
0.0000000000000000e+00 1.7780000000000001e+01
0.0000000000000000e+00 2.4729999999999999e+00
ITEM: ATOMS id type x y z 
13 1 6.89004 0.957452 0.0329195 
29 1 7.15271 1.63881 1.26839 
37 1 8.14909 2.6992 1.24526 
1 1 6.22126 17.3908 0.0266026 
5 1 5.36606 17.4045 1.25866 
9 1 3.95997 17.4008 1.23245 
16 1 6.85751 16.0201 0.0333586 
32 1 7.09857 15.3378 1.26763 
40 1 8.10952 14.2928 1.24699 
45 1 3.22963 17.3957 -0.00260679 
49 1 1.7613 17.3965 2.46408 
53 1 1.02355 17.3985 1.22746 
57 2 8.13925 17.3679 1.32766 
4 1 10.9096 8.50756 2.46446 
8 1 11.7167 8.51085 1.22793 
12 1 13.1324 8.51356 1.22776 
18 1 9.95946 7.30799 2.46483 
21 1 8.58934 3.30556 0.00753899 
26 1 8.83043 4.72096 2.46843 
34 1 9.48908 6.78395 1.22844 
42 1 8.86619 5.47103 1.23147 
48 1 13.9074 8.51151 2.46427 
52 1 15.3056 8.50787 2.46426 
56 1 16.0429 8.50675 1.22775 
19 1 9.96116 9.69623 2.465 
24 1 8.58817 13.7263 0.00926932 
27 1 8.86916 12.2951 2.46903 
35 1 9.49976 10.2309 1.22862 
43 1 8.87765 11.579 1.23216 
58 3 9.04437 17.3658 1.57226 
3 1 22.6208 8.508 2.46425 
7 1 21.8258 8.50799 1.22775 
11 1 20.3976 8.50801 1.22774 
20 1 23.5696 7.30891 2.46425 
36 1 24.0231 6.76273 1.22775 
55 1 17.5069 8.50757 1.22774 
47 1 19.6315 8.50811 2.46425 
51 1 18.2461 8.50803 2.46425 
17 1 23.5696 9.70709 2.46425 
33 1 24.0231 10.2533 1.22775 
15 1 26.3601 0.821109 2.46425 
23 1 25.1165 3.34592 2.46425 
28 1 24.83 4.79231 2.46425 
31 1 25.918 1.37329 1.22775 
39 1 25.2874 2.63727 1.22775 
44 1 24.6627 5.50142 1.22775 
2 1 27.2981 17.398 2.46425 
6 1 28.1252 17.398 1.22775 
10 1 29.5194 17.398 1.22773 
14 1 26.3601 16.1949 2.46425 
22 1 25.1165 13.6701 2.46425 
25 1 24.83 12.2237 2.46425 
30 1 25.918 15.6427 1.22775 
38 1 25.2874 14.3787 1.22775 
46 1 30.259 17.3979 2.46424 
50 1 31.7179 17.3979 2.46411 
54 1 32.4641 17.3985 1.22759 
41 1 24.6627 11.5146 1.22775 
ITEM: TIMESTEP
70
ITEM: NUMBER OF ATOMS
58
ITEM: BOX BOUNDS pp pp pp
0.0000000000000000e+00 3.2808000000000000e+01
0.0000000000000000e+00 1.7780000000000001e+01
0.0000000000000000e+00 2.4729999999999999e+00
ITEM: ATOMS id type x y z 
13 1 6.89713 0.960333 0.0333085 
29 1 7.16635 1.62857 1.26834 
37 1 8.15391 2.69522 1.24538 
1 1 6.22235 17.3901 0.025057 
5 1 5.36086 17.4042 1.2607 
9 1 3.96643 17.4009 1.234 
16 1 6.85959 16.0267 0.0326835 
32 1 7.11024 15.3439 1.2681 
40 1 8.11446 14.2975 1.24695 
45 1 3.22615 17.3956 -0.00215029 
49 1 1.76656 17.3963 2.46422 
53 1 1.02165 17.3985 1.22766 
57 2 8.15461 17.3675 1.32161 
4 1 10.8975 8.50626 2.46449 
8 1 11.7209 8.51097 1.22798 
12 1 13.1156 8.51363 1.22777 
18 1 9.95274 7.31165 2.46497 
21 1 8.59348 3.30252 0.00833008 
26 1 8.82984 4.72596 2.46866 
34 1 9.48441 6.78344 1.22853 
42 1 8.8609 5.46846 1.23184 
48 1 13.8821 8.51175 2.46427 
52 1 15.3157 8.50778 2.46425 
56 1 16.0416 8.50661 1.22775 
19 1 9.94849 9.70151 2.46516 
24 1 8.59599 13.7234 0.00991371 
27 1 8.86643 12.3047 2.46931 
35 1 9.49195 10.2374 1.22873 
43 1 8.88382 11.5558 1.23251 
58 3 9.04785 17.3648 1.57202 
3 1 22.6249 8.508 2.46425 
7 1 21.825 8.50799 1.22775 
11 1 20.404 8.50802 1.22775 
20 1 23.5745 7.30737 2.46425 
36 1 24.0294 6.76747 1.22775 
55 1 17.5084 8.50751 1.22775 
47 1 19.6325 8.50814 2.46425 
51 1 18.2449 8.50804 2.46425 
17 1 23.5745 9.70863 2.46425 
33 1 24.0294 10.2485 1.22775 
15 1 26.3563 0.819842 2.46425 
23 1 25.1069 3.34812 2.46425 
28 1 24.8399 4.79027 2.46425 
31 1 25.9111 1.36932 1.22775 
39 1 25.2744 2.63183 1.22775 
44 1 24.6757 5.50751 1.22775 
2 1 27.2968 17.398 2.46425 
6 1 28.1218 17.398 1.22775 
10 1 29.5184 17.398 1.22773 
14 1 26.3563 16.1962 2.46425 
22 1 25.1069 13.6679 2.46425 
25 1 24.8399 12.2257 2.46425 
30 1 25.9111 15.6467 1.22775 
38 1 25.2744 14.3842 1.22775 
46 1 30.2546 17.3979 2.46423 
50 1 31.718 17.398 2.4641 
54 1 32.4599 17.3986 1.2276 
41 1 24.6757 11.5085 1.22775 
ITEM: TIMESTEP
80
ITEM: NUMBER OF ATOMS
58
ITEM: BOX BOUNDS pp pp pp
0.0000000000000000e+00 3.2808000000000000e+01
0.0000000000000000e+00 1.7780000000000001e+01
0.0000000000000000e+00 2.4729999999999999e+00
ITEM: ATOMS id type x y z 
13 1 6.91413 0.954275 0.0333555 
29 1 7.20554 1.61006 1.2686 
37 1 8.17778 2.68892 1.24666 
1 1 6.2165 17.3919 0.0255681 
5 1 5.35932 17.4057 1.26114 
9 1 3.967 17.4012 1.23697 
16 1 6.8744 16.0334 0.0310911 
32 1 7.14201 15.3634 1.26811 
40 1 8.1387 14.306 1.24777 
45 1 3.22377 17.3956 0.000616725 
49 1 1.76587 17.3957 2.46479 
53 1 1.01927 17.3983 1.22817 
57 2 8.18594 17.3649 1.30302 
4 1 10.884 8.50705 2.46466 
8 1 11.7001 8.51048 1.22812 
12 1 13.1062 8.51372 1.2278 
18 1 9.93265 7.3168 2.46529 
21 1 8.60847 3.29454 0.0096491 
26 1 8.82596 4.73056 2.46961 
34 1 9.46862 6.78647 1.22891 
42 1 8.84485 5.46872 1.23271 
48 1 13.8666 8.51238 2.4643 
52 1 15.2955 8.5077 2.46425 
56 1 16.0336 8.50629 1.22775 
19 1 9.92928 9.69526 2.46549 
24 1 8.61275 13.7258 0.010875 
27 1 8.86389 12.3018 2.47027 
35 1 9.4737 10.2352 1.22917 
43 1 8.87377 11.5568 1.23342 
58 3 9.07266 17.3626 1.57414 
3 1 22.6357 8.508 2.46425 
7 1 21.8223 8.50798 1.22775 
11 1 20.4181 8.50805 1.22775 
20 1 23.5846 7.30855 2.46425 
36 1 24.0491 6.78141 1.22775 
55 1 17.485 8.50726 1.22775 
47 1 19.6501 8.50825 2.46425 
51 1 18.2268 8.50805 2.46425 
17 1 23.5846 9.70745 2.46425 
33 1 24.0491 10.2346 1.22775 
15 1 26.346 0.816723 2.46425 
23 1 25.0783 3.35108 2.46425 
28 1 24.8696 4.78765 2.46425 
31 1 25.891 1.35479 1.22775 
39 1 25.2286 2.62172 1.22775 
44 1 24.7232 5.51777 1.22775 
2 1 27.2908 17.398 2.46425 
6 1 28.1154 17.398 1.22775 
10 1 29.5128 17.398 1.22773 
14 1 26.346 16.1993 2.46425 
22 1 25.0783 13.6649 2.46425 
25 1 24.8696 12.2284 2.46425 
30 1 25.891 15.6612 1.22775 
38 1 25.2286 14.3943 1.22775 
46 1 30.2484 17.3978 2.46422 
50 1 31.7126 17.3981 2.46414 
54 1 32.4535 17.3989 1.22765 
41 1 24.7232 11.4982 1.22775 
ITEM: TIMESTEP
90
ITEM: NUMBER OF ATOMS
58
ITEM: BOX BOUNDS pp pp pp
0.0000000000000000e+00 3.2808000000000000e+01
0.0000000000000000e+00 1.7780000000000001e+01
0.0000000000000000e+00 2.4729999999999999e+00
ITEM: ATOMS id type x y z 
13 1 6.92393 0.945081 0.0318876 
29 1 7.22595 1.59958 1.26784 
37 1 8.19056 2.67952 1.24741 
1 1 6.21488 17.3921 0.0256022 
5 1 5.35766 17.4069 1.26112 
9 1 3.963 17.4014 1.23819 
16 1 6.88128 16.0424 0.0307887 
32 1 7.1598 15.3735 1.26616 
40 1 8.15254 14.3137 1.24831 
45 1 3.22439 17.3955 0.00208486 
49 1 1.76286 17.3954 2.46515 
53 1 1.02015 17.3982 1.22853 
57 2 8.19913 17.364 1.2975 
4 1 10.8738 8.50619 2.46475 
8 1 11.7001 8.50999 1.22824 
12 1 13.0928 8.51389 1.22782 
18 1 9.92198 7.31463 2.46552 
21 1 8.62153 3.29569 0.0101488 
26 1 8.82299 4.72396 2.47008 
34 1 9.45281 6.78622 1.22911 
42 1 8.83157 5.47084 1.23328 
48 1 13.8479 8.51278 2.46432 
52 1 15.2947 8.50762 2.46426 
56 1 16.03 8.50602 1.22776 
19 1 9.9181 9.69626 2.46578 
24 1 8.62357 13.7302 0.011143 
27 1 8.86338 12.3053 2.47079 
35 1 9.4592 10.2314 1.22934 
43 1 8.86007 11.5615 1.23391 
58 3 9.08656 17.3617 1.57533 
3 1 22.6398 8.508 2.46425 
7 1 21.8119 8.50797 1.22775 
11 1 20.4199 8.50808 1.22775 
20 1 23.5863 7.31215 2.46425 
36 1 24.0613 6.79186 1.22775 
55 1 17.485 8.50711 1.22775 
47 1 19.6688 8.50832 2.46425 
51 1 18.2191 8.50806 2.46425 
17 1 23.5863 9.70385 2.46425 
33 1 24.0613 10.2241 1.22775 
15 1 26.3434 0.814528 2.46425 
23 1 25.0601 3.35688 2.46425 
28 1 24.888 4.78313 2.46425 
31 1 25.879 1.34281 1.22775 
39 1 25.1919 2.61715 1.22775 
44 1 24.7608 5.52244 1.22775 
2 1 27.2902 17.398 2.46425 
6 1 28.1153 17.398 1.22775 
10 1 29.5117 17.3979 1.22772 
14 1 26.3434 16.2015 2.46425 
22 1 25.0601 13.6591 2.46425 
25 1 24.888 12.2329 2.46425 
30 1 25.879 15.6732 1.22775 
38 1 25.1919 14.3988 1.22775 
46 1 30.2488 17.3978 2.46422 
50 1 31.7122 17.3981 2.4642 
54 1 32.4537 17.399 1.22772 
41 1 24.7608 11.4936 1.22775 
ITEM: TIMESTEP
100
ITEM: NUMBER OF ATOMS
58
ITEM: BOX BOUNDS pp pp pp
0.0000000000000000e+00 3.2808000000000000e+01
0.0000000000000000e+00 1.7780000000000001e+01
0.0000000000000000e+00 2.4729999999999999e+00
ITEM: ATOMS id type x y z 
13 1 6.954 0.934585 0.0290029 
29 1 7.29675 1.56644 1.26494 
37 1 8.2363 2.66108 1.24893 
1 1 6.21295 17.3968 0.0247191 
5 1 5.35799 17.4115 1.26032 
9 1 3.96031 17.4022 1.24159 
16 1 6.90118 16.0532 0.028953 
32 1 7.22129 15.4076 1.2627 
40 1 8.19737 14.3342 1.24917 
45 1 3.2182 17.3949 0.00532102 
49 1 1.76013 17.3942 2.4664 
53 1 1.01821 17.3978 1.22971 
57 2 8.24095 17.3627 1.2826 
4 1 10.8709 8.50344 2.46514 
8 1 11.694 8.50923 1.22859 
12 1 13.0897 8.51386 1.22793 
18 1 9.89894 7.3243 2.4662 
21 1 8.63702 3.29133 0.0114684 
26 1 8.80978 4.72885 2.47159 
34 1 9.43223 6.79567 1.22983 
42 1 8.81506 5.47673 1.23479 
48 1 13.852 8.51344 2.46441 
52 1 15.2978 8.50776 2.46427 
56 1 16.0276 8.50586 1.22777 
19 1 9.8958 9.68384 2.46652 
24 1 8.64334 13.7331 0.01192 
27 1 8.85492 12.3003 2.47223 
35 1 9.43745 10.2176 1.23006 
43 1 8.84792 11.5607 1.23531 
58 3 9.1248 17.3582 1.57912 
3 1 22.6502 8.508 2.46425 
7 1 21.8191 8.50797 1.22775 
11 1 20.4258 8.50823 1.22775 
20 1 23.6098 7.3186 2.46425 
36 1 24.0742 6.78911 1.22775 
55 1 17.4816 8.50672 1.22775 
47 1 19.6758 8.50845 2.46425 
51 1 18.2136 8.50786 2.46425 
17 1 23.6098 9.6974 2.46425 
33 1 24.0742 10.2269 1.22775 
15 1 26.3102 0.817394 2.46425 
23 1 25.0227 3.35936 2.46425 
28 1 24.9272 4.78583 2.46425 
31 1 25.8562 1.3508 1.22775 
39 1 25.1478 2.61896 1.22775 
44 1 24.798 5.52968 1.22775 
2 1 27.2534 17.398 2.46424 
6 1 28.0801 17.398 1.22774 
10 1 29.4755 17.3978 1.22773 
14 1 26.3102 16.1986 2.46425 
22 1 25.0227 13.6567 2.46425 
25 1 24.9272 12.2301 2.46425 
30 1 25.8562 15.6652 1.22775 
38 1 25.1478 14.397 1.22775 
46 1 30.2213 17.3977 2.46424 
50 1 31.6797 17.3985 2.4645 
54 1 32.4219 17.3995 1.22804 
41 1 24.798 11.4863 1.22775 
ITEM: TIMESTEP
110
ITEM: NUMBER OF ATOMS
58
ITEM: BOX BOUNDS pp pp pp
0.0000000000000000e+00 3.2808000000000000e+01
0.0000000000000000e+00 1.7780000000000001e+01
0.0000000000000000e+00 2.4729999999999999e+00
ITEM: ATOMS id type x y z 
13 1 6.98087 0.934014 0.0272622 
29 1 7.33525 1.5394 1.26261 
37 1 8.26932 2.64683 1.24936 
1 1 6.21173 17.3973 0.0237321 
5 1 5.36118 17.4154 1.25964 
9 1 3.97271 17.4029 1.24368 
16 1 6.92434 16.0538 0.0245196 
32 1 7.26513 15.4348 1.26276 
40 1 8.2259 14.3535 1.24937 
45 1 3.21439 17.3942 0.00700475 
49 1 1.77401 17.3932 2.46744 
53 1 1.03092 17.3973 1.23096 
57 2 8.28195 17.3618 1.27179 
4 1 10.8767 8.50622 2.46549 
8 1 11.6889 8.50904 1.22887 
12 1 13.0939 8.51374 1.22803 
18 1 9.89091 7.336 2.46675 
21 1 8.64046 3.29956 0.012426 
26 1 8.79624 4.73613 2.4728 
34 1 9.42606 6.80353 1.23043 
42 1 8.81586 5.47886 1.23582 
48 1 13.8513 8.51352 2.4645 
52 1 15.2897 8.50807 2.46429 
56 1 16.0397 8.50597 1.22779 
19 1 9.88837 9.67121 2.46701 
24 1 8.64563 13.723 0.0124749 
27 1 8.84305 12.2985 2.47323 
35 1 9.43013 10.2132 1.23074 
43 1 8.85745 11.5508 1.23632 
58 3 9.15243 17.3492 1.58382 
3 1 22.6458 8.508 2.46425 
7 1 21.8302 8.508 1.22775 
11 1 20.4268 8.50835 1.22775 
20 1 23.6179 7.32196 2.46425 
36 1 24.0784 6.79403 1.22775 
55 1 17.4761 8.50649 1.22775 
47 1 19.6642 8.50848 2.46425 
51 1 18.2275 8.50762 2.46425 
17 1 23.6179 9.69405 2.46425 
33 1 24.0784 10.222 1.22775 
15 1 26.2872 0.819914 2.46425 
23 1 25.0019 3.36089 2.46425 
28 1 24.9457 4.80367 2.46425 
31 1 25.8354 1.3577 1.22775 
39 1 25.1159 2.62625 1.22775 
44 1 24.8148 5.53761 1.22775 
2 1 27.2249 17.398 2.46424 
6 1 28.0535 17.398 1.22775 
10 1 29.4455 17.3977 1.22777 
14 1 26.2872 16.1961 2.46425 
22 1 25.0019 13.6551 2.46425 
25 1 24.9456 12.2123 2.46425 
30 1 25.8354 15.6583 1.22775 
38 1 25.1159 14.3897 1.22775 
46 1 30.2003 17.3977 2.46428 
50 1 31.6455 17.3989 2.46477 
54 1 32.3859 17.3998 1.22829 
41 1 24.8147 11.4784 1.22775 
ITEM: TIMESTEP
120
ITEM: NUMBER OF ATOMS
58
ITEM: BOX BOUNDS pp pp pp
0.0000000000000000e+00 3.2808000000000000e+01
0.0000000000000000e+00 1.7780000000000001e+01
0.0000000000000000e+00 2.4729999999999999e+00
ITEM: ATOMS id type x y z 
13 1 6.98434 0.923293 0.0262624 
29 1 7.34707 1.53104 1.2621 
37 1 8.28102 2.63964 1.24961 
1 1 6.20332 17.3991 0.0232982 
5 1 5.3661 17.4167 1.25895 
9 1 3.96332 17.4032 1.24426 
16 1 6.92953 16.0642 0.0249799 
32 1 7.27494 15.4455 1.25963 
40 1 8.23931 14.3585 1.24952 
45 1 3.20701 17.3941 0.00720551 
49 1 1.76492 17.393 2.46826 
53 1 1.02084 17.3969 1.23134 
57 2 8.29926 17.3614 1.26551 
4 1 10.8742 8.50455 2.46563 
8 1 11.6947 8.50871 1.22905 
12 1 13.093 8.51371 1.22808 
18 1 9.89021 7.33365 2.46703 
21 1 8.64136 3.30019 0.0123906 
26 1 8.79086 4.73505 2.47319 
34 1 9.41949 6.80464 1.23069 
42 1 8.81175 5.47902 1.23628 
48 1 13.8497 8.51359 2.46455 
52 1 15.2948 8.50816 2.46431 
56 1 16.0368 8.50602 1.2278 
19 1 9.88693 9.67287 2.46732 
24 1 8.64424 13.7281 0.0124027 
27 1 8.83976 12.2949 2.47365 
35 1 9.42473 10.209 1.23095 
43 1 8.85303 11.5559 1.23667 
58 3 9.17104 17.3462 1.58963 
3 1 22.6501 8.50797 2.46425 
7 1 21.829 8.50801 1.22775 
11 1 20.429 8.50839 1.22775 
20 1 23.6177 7.3228 2.46425 
36 1 24.082 6.79487 1.22775 
55 1 17.4868 8.5064 1.22776 
47 1 19.6748 8.50848 2.46425 
51 1 18.228 8.50752 2.46426 
17 1 23.6177 9.69319 2.46425 
33 1 24.082 10.2211 1.22775 
15 1 26.2767 0.820533 2.46425 
23 1 24.997 3.36208 2.46425 
28 1 24.9495 4.80561 2.46425 
31 1 25.829 1.35852 1.22775 
39 1 25.1116 2.62288 1.22775 
44 1 24.8205 5.54139 1.22775 
2 1 27.2204 17.398 2.46425 
6 1 28.0418 17.398 1.22775 
10 1 29.4425 17.3977 1.22779 
14 1 26.2767 16.1955 2.46425 
22 1 24.997 13.6539 2.46425 
25 1 24.9494 12.2104 2.46425 
30 1 25.829 15.6575 1.22775 
38 1 25.1117 14.3931 1.22775 
46 1 30.2004 17.3977 2.46431 
50 1 31.6408 17.3991 2.46487 
54 1 32.386 17.3998 1.22848 
41 1 24.8205 11.4746 1.22775 
ITEM: TIMESTEP
130
ITEM: NUMBER OF ATOMS
58
ITEM: BOX BOUNDS pp pp pp
0.0000000000000000e+00 3.2808000000000000e+01
0.0000000000000000e+00 1.7780000000000001e+01
0.0000000000000000e+00 2.4729999999999999e+00
ITEM: ATOMS id type x y z 
13 1 7.04739 0.884414 0.018505 
29 1 7.47328 1.42735 1.25414 
37 1 8.3611 2.58461 1.25011 
1 1 6.1533 17.4068 0.0168096 
5 1 5.33116 17.4228 1.25312 
9 1 3.92302 17.4052 1.2477 
16 1 6.98986 16.1178 0.00978805 
32 1 7.40418 15.5571 1.2494 
40 1 8.31188 14.4275 1.24874 
45 1 3.16158 17.3945 0.010302 
49 1 1.7216 17.3905 2.47426 
53 1 0.974148 17.3929 1.23721 
57 2 8.5114 17.3583 1.20695 
4 1 10.8779 8.50344 2.46743 
8 1 11.6957 8.50678 1.23069 
12 1 13.0962 8.51292 1.22872 
18 1 9.87876 7.34673 2.46975 
21 1 8.59732 3.29678 0.0131549 
26 1 8.72902 4.73804 2.4773 
34 1 9.40737 6.80808 1.23354 
42 1 8.82263 5.47137 1.24017 
48 1 13.8602 8.5135 2.46517 
52 1 15.3007 8.5095 2.46447 
56 1 16.049 8.50711 1.22796 
19 1 9.87785 9.65179 2.46995 
24 1 8.59316 13.7269 0.0119312 
27 1 8.78624 12.2965 2.47725 
35 1 9.41403 10.2063 1.23374 
43 1 8.88238 11.555 1.24029 
58 3 9.32509 17.3202 1.64746 
3 1 22.6628 8.50798 2.46425 
7 1 21.8444 8.50822 1.22775 
11 1 20.4383 8.50872 1.22775 
20 1 23.6372 7.32094 2.46425 
36 1 24.1069 6.80409 1.22775 
55 1 17.4878 8.50568 1.22779 
47 1 19.6735 8.50836 2.46426 
51 1 18.2398 8.50641 2.46428 
17 1 23.6372 9.69505 2.46425 
33 1 24.1069 10.2119 1.22775 
15 1 26.2021 0.802688 2.46425 
23 1 24.9595 3.37222 2.46425 
28 1 24.9795 4.82433 2.46425 
31 1 25.7674 1.35663 1.22775 
39 1 25.0621 2.6408 1.22775 
44 1 24.8647 5.55847 1.22775 
2 1 27.1673 17.398 2.46429 
6 1 27.9895 17.3977 1.22781 
10 1 29.3918 17.3974 1.22816 
14 1 26.202 16.2133 2.46425 
22 1 24.9595 13.6438 2.46425 
25 1 24.9794 12.1917 2.46425 
30 1 25.7674 15.6593 1.22775 
38 1 25.0621 14.3751 1.22775 
46 1 30.1503 17.3984 2.46475 
50 1 31.5914 17.4009 2.46653 
54 1 32.3422 17.3996 1.23038 
41 1 24.8646 11.4575 1.22775 
ITEM: TIMESTEP
140
ITEM: NUMBER OF ATOMS
58
ITEM: BOX BOUNDS pp pp pp
0.0000000000000000e+00 3.2808000000000000e+01
0.0000000000000000e+00 1.7780000000000001e+01
0.0000000000000000e+00 2.4729999999999999e+00
ITEM: ATOMS id type x y z 
13 1 7.06176 0.850069 0.0153189 
29 1 7.48164 1.40815 1.25166 
37 1 8.33789 2.57812 1.24942 
1 1 6.1398 17.4136 0.014347 
5 1 5.31849 17.4226 1.25066 
9 1 3.91358 17.4056 1.24738 
16 1 7.00786 16.1477 0.0098765 
32 1 7.41057 15.5862 1.24422 
40 1 8.29398 14.4276 1.24722 
45 1 3.15573 17.3966 0.0106194 
49 1 1.71586 17.3903 2.4757 
53 1 0.968494 17.3923 1.23835 
57 2 8.59633 17.3575 1.17266 
4 1 10.8765 8.49911 2.4682 
8 1 11.6911 8.50539 1.2313 
12 1 13.0966 8.51231 1.22911 
18 1 9.87246 7.34418 2.47073 
21 1 8.57254 3.29152 0.0127298 
26 1 8.72268 4.72685 2.47811 
34 1 9.42575 6.79313 1.23458 
42 1 8.83124 5.45537 1.24117 
48 1 13.8567 8.51327 2.46543 
52 1 15.2994 8.50986 2.4646 
56 1 16.0465 8.50758 1.22805 
19 1 9.86992 9.65717 2.47087 
24 1 8.56488 13.7346 0.010841 
27 1 8.77897 12.3017 2.47796 
35 1 9.43823 10.2168 1.23473 
43 1 8.88887 11.5774 1.24098 
58 3 9.36996 17.3191 1.68623 
3 1 22.6607 8.50796 2.46425 
7 1 21.8442 8.50828 1.22775 
11 1 20.4404 8.50866 1.22776 
20 1 23.6413 7.33202 2.46425 
36 1 24.1071 6.80614 1.22775 
55 1 17.4931 8.50571 1.22782 
47 1 19.6803 8.50816 2.46426 
51 1 18.2407 8.5062 2.46431 
17 1 23.6413 9.68392 2.46425 
33 1 24.1071 10.2098 1.22775 
15 1 26.1904 0.804351 2.46426 
23 1 24.963 3.37585 2.46425 
28 1 24.9791 4.82374 2.46425 
31 1 25.7532 1.35111 1.22776 
39 1 25.0712 2.63535 1.22775 
44 1 24.8608 5.55896 1.22775 
2 1 27.1658 17.398 2.46434 
6 1 27.978 17.3976 1.22788 
10 1 29.3871 17.3977 1.22843 
14 1 26.1903 16.2117 2.46426 
22 1 24.963 13.6401 2.46425 
25 1 24.9791 12.1922 2.46425 
30 1 25.7531 15.6649 1.22776 
38 1 25.0711 14.3806 1.22775 
46 1 30.1478 17.3989 2.46509 
50 1 31.5858 17.4006 2.4675 
54 1 32.3348 17.3989 1.23154 
41 1 24.8608 11.457 1.22775 
ITEM: TIMESTEP
150
ITEM: NUMBER OF ATOMS
58
ITEM: BOX BOUNDS pp pp pp
0.0000000000000000e+00 3.2808000000000000e+01
0.0000000000000000e+00 1.7780000000000001e+01
0.0000000000000000e+00 2.4729999999999999e+00
ITEM: ATOMS id type x y z 
13 1 7.06032 0.848211 0.0140678 
29 1 7.48398 1.40492 1.25044 
37 1 8.33251 2.57685 1.24865 
1 1 6.13456 17.414 0.0131639 
5 1 5.31507 17.4252 1.24955 
9 1 3.90943 17.4065 1.24673 
16 1 7.00331 16.1501 0.00973335 
32 1 7.41012 15.5895 1.24393 
40 1 8.28845 14.4274 1.2461 
45 1 3.1519 17.3966 0.00997148 
49 1 1.71087 17.3902 2.47581 
53 1 0.962572 17.392 1.23848 
57 2 8.65218 17.3569 1.13822 
4 1 10.8786 8.49794 2.46864 
8 1 11.6948 8.50428 1.23177 
12 1 13.0976 8.5119 1.22935 
18 1 9.88288 7.33692 2.47123 
21 1 8.56967 3.2891 0.0120048 
26 1 8.72466 4.72791 2.47817 
34 1 9.43263 6.79141 1.23508 
42 1 8.82705 5.45303 1.24127 
48 1 13.8561 8.51319 2.46568 
52 1 15.2981 8.51004 2.46471 
56 1 16.0453 8.5078 1.22815 