
     Program PWSCF v.7.1 starts on 25May2025 at  2:11:31 

     This program is part of the open-source Quantum ESPRESSO suite
     for quantum simulation of materials; please cite
         "P. Giannozzi et al., J. Phys.:Condens. Matter 21 395502 (2009);
         "P. Giannozzi et al., J. Phys.:Condens. Matter 29 465901 (2017);
         "P. Giannozzi et al., J. Chem. Phys. 152 154105 (2020);
          URL http://www.quantum-espresso.org", 
     in publications or presentations arising from this work. More details at
     http://www.quantum-espresso.org/quote

     Parallel version (MPI), running on    16 processors

     MPI processes distributed on     1 nodes
     246499 MiB available memory on the printing compute node when the environment starts

     Reading input from input.pwi
Warning: card &CELL ignored
Warning: card / ignored
Warning: card &FCP ignored
Warning: card / ignored
Warning: card &RISM ignored
Warning: card / ignored

     Current dimensions of program PWSCF are:
     Max number of different atomic species (ntypx) = 10
     Max number of k-points (npk) =  40000
     Max angular momentum in pseudopotentials (lmaxx) =  4
     file C.pbe-n-kjpaw_psl.1.0.0.UPF: wavefunction(s)  2S 2P renormalized
     file O.pbe-n-kjpaw_psl.0.1.UPF: wavefunction(s)  2P renormalized

     IMPORTANT: XC functional enforced from input :
     Exchange-correlation= PBE
                           (   1   4   3   4   0   0   0)
     Any further DFT definition will be discarded
     Please, verify this is what you really want


     gamma-point specific algorithms are used

     R & G space division:  proc/nbgrp/npool/nimage =      16
     Subspace diagonalization in iterative solution of the eigenvalue problem:
     a serial algorithm will be used


     Parallelization info
     --------------------
     sticks:   dense  smooth     PW     G-vecs:    dense   smooth      PW
     Min         858     428    106                75870    26832    3354
     Max         860     430    108                75880    26846    3360
     Sum       13753    6869   1725              1214029   429409   53715

     Using Slab Decomposition



     bravais-lattice index     =            0
     lattice parameter (alat)  =      20.7870  a.u.
     unit-cell volume          =    8983.6663 (a.u.)^3
     number of atoms/cell      =           49
     number of atomic types    =            2
     number of electrons       =       198.00 (up:  99.00, down:  99.00)
     number of Kohn-Sham states=          119
     kinetic-energy cutoff     =      50.0000  Ry
     charge density cutoff     =     400.0000  Ry
     scf convergence threshold =      1.0E-06
     mixing beta               =       0.3000
     number of iterations used =            8  plain     mixing
     energy convergence thresh.=      1.0E-04
     force convergence thresh. =      1.0E-03
     Exchange-correlation= PBE
                           (   1   4   3   4   0   0   0)
     nstep                     =         1000


     celldm(1)=  20.786987  celldm(2)=   0.000000  celldm(3)=   0.000000
     celldm(4)=   0.000000  celldm(5)=   0.000000  celldm(6)=   0.000000

     crystal axes: (cart. coord. in units of alat)
               a(1) = (   1.000000   0.000000   0.000000 )  
               a(2) = (   0.000000   1.000182   0.000000 )  
               a(3) = (   0.000000   0.000000   1.000000 )  

     reciprocal axes: (cart. coord. in units 2 pi/alat)
               b(1) = (  1.000000  0.000000  0.000000 )  
               b(2) = (  0.000000  0.999818  0.000000 )  
               b(3) = (  0.000000  0.000000  1.000000 )  


     PseudoPot. # 1 for C  read from file:
     /home/ana.bisette/espresso/pseudo/C.pbe-n-kjpaw_psl.1.0.0.UPF
     MD5 check sum: 5d2aebdfa2cae82b50a7e79e9516da0f
     Pseudo is Projector augmented-wave + core cor, Zval =  4.0
     Generated using "atomic" code by A. Dal Corso  v.5.1
     Shape of augmentation charge: PSQ
     Using radial grid of 1073 points,  4 beta functions with: 
                l(1) =   0
                l(2) =   0
                l(3) =   1
                l(4) =   1
     Q(r) pseudized with 0 coefficients 


     PseudoPot. # 2 for O  read from file:
     /home/ana.bisette/espresso/pseudo/O.pbe-n-kjpaw_psl.0.1.UPF
     MD5 check sum: 0234752ac141de4415c5fc33072bef88
     Pseudo is Projector augmented-wave + core cor, Zval =  6.0
     Generated using "atomic" code by A. Dal Corso  v.5.0.99 svn rev. 10869
     Shape of augmentation charge: BESSEL
     Using radial grid of 1095 points,  4 beta functions with: 
                l(1) =   0
                l(2) =   0
                l(3) =   1
                l(4) =   1
     Q(r) pseudized with 0 coefficients 


     atomic species   valence    mass     pseudopotential
        C              4.00    12.01100     C ( 1.00)
        O              6.00    15.99900     O ( 1.00)

     Starting magnetic structure 
     atomic species   magnetization
        C            0.000
        O            0.000

     No symmetry found



   Cartesian axes

     site n.     atom                  positions (alat units)
         1           C   tau(   1) = (   0.5607273   0.4189091   0.5608182  )
         2           C   tau(   2) = (   0.6985455   0.2805455   0.6985455  )
         3           C   tau(   3) = (   0.6340000   0.3453636   0.6340000  )
         4           C   tau(   4) = (   0.4189091   0.5608182   0.5608182  )
         5           C   tau(   5) = (   0.2805455   0.6985455   0.6985455  )
         6           C   tau(   6) = (   0.3453636   0.6340000   0.6340000  )
         7           C   tau(   7) = (   0.5608182   0.5608182   0.4189091  )
         8           C   tau(   8) = (   0.6985455   0.6985455   0.2805455  )
         9           C   tau(   9) = (   0.6340000   0.6340000   0.3453636  )
        10           C   tau(  10) = (   0.4184545   0.4184545   0.4184545  )
        11           C   tau(  11) = (   0.2804545   0.2804545   0.2804545  )
        12           C   tau(  12) = (   0.3450909   0.3450909   0.3450909  )
        13           C   tau(  13) = (   0.5659091   0.4132727   0.4132727  )
        14           C   tau(  14) = (   0.7058182   0.2739091   0.2739091  )
        15           C   tau(  15) = (   0.6411818   0.3382727   0.3383636  )
        16           C   tau(  16) = (   0.4132727   0.5659091   0.4132727  )
        17           C   tau(  17) = (   0.2739091   0.7059091   0.2739091  )
        18           C   tau(  18) = (   0.3382727   0.6411818   0.3383636  )
        19           C   tau(  19) = (   0.4132727   0.4131818   0.5660000  )
        20           C   tau(  20) = (   0.2739091   0.2739091   0.7058182  )
        21           C   tau(  21) = (   0.3382727   0.3382727   0.6411818  )
        22           C   tau(  22) = (   0.5662727   0.5662727   0.5662727  )
        23           C   tau(  23) = (   0.7058182   0.7059091   0.7059091  )
        24           C   tau(  24) = (   0.6413636   0.6414545   0.6413636  )
        25           C   tau(  25) = (   0.0607273   0.9184545   0.0607273  )
        26           C   tau(  26) = (   0.1989091   0.7808182   0.1989091  )
        27           C   tau(  27) = (   0.1341818   0.8452727   0.1341818  )
        28           C   tau(  28) = (   0.9183636   0.0606364   0.0607273  )
        29           C   tau(  29) = (   0.7808182   0.1988182   0.1989091  )
        30           C   tau(  30) = (   0.8452727   0.1340909   0.1341818  )
        31           C   tau(  31) = (   0.0607273   0.0606364   0.9184545  )
        32           C   tau(  32) = (   0.1988182   0.1988182   0.7808182  )
        33           C   tau(  33) = (   0.1341818   0.1340909   0.8452727  )
        34           C   tau(  34) = (   0.9189091   0.9189091   0.9188182  )
        35           C   tau(  35) = (   0.7809091   0.7809091   0.7809091  )
        36           C   tau(  36) = (   0.8455455   0.8455455   0.8454545  )
        37           C   tau(  37) = (   0.0662727   0.9132727   0.9132727  )
        38           C   tau(  38) = (   0.2053636   0.7735455   0.7734545  )
        39           C   tau(  39) = (   0.1410909   0.8380909   0.8380909  )
        40           C   tau(  40) = (   0.9131818   0.0661818   0.9132727  )
        41           C   tau(  41) = (   0.7734545   0.2053636   0.7734545  )
        42           C   tau(  42) = (   0.8380000   0.1410000   0.8380000  )
        43           C   tau(  43) = (   0.9132727   0.9133636   0.0662727  )
        44           C   tau(  44) = (   0.7734545   0.7735455   0.2053636  )
        45           C   tau(  45) = (   0.8380909   0.8380909   0.1410909  )
        46           C   tau(  46) = (   0.0660000   0.0659091   0.0659091  )
        47           C   tau(  47) = (   0.2054545   0.2053636   0.2054545  )
        48           C   tau(  48) = (   0.1410000   0.1409091   0.1409091  )
        49           O   tau(  49) = (   0.2609091   0.7064545   0.8601818  )

     number of k points=     1  Gaussian smearing, width (Ry)=  0.0001
                       cart. coord. in units 2pi/alat
        k(    1) = (   0.0000000   0.0000000   0.0000000), wk =   1.0000000

     Dense  grid:   607015 G-vectors     FFT dimensions: ( 135, 135, 135)

     Smooth grid:   214705 G-vectors     FFT dimensions: (  96,  96,  96)

     Estimated max dynamical RAM per process >     173.67 MB

     Estimated total dynamical RAM >       2.71 GB

     Check: negative core charge=   -0.000004
     Generating pointlists ...
     new r_m :   0.0461 (alat units)  0.9573 (a.u.) for type    1
     new r_m :   0.0507 (alat units)  1.0540 (a.u.) for type    2

     Initial potential from superposition of free atoms

     starting charge     197.9980, renormalised to     198.0000
     Starting wfcs are  196 randomized atomic wfcs
     Checking if some PAW data can be deallocated... 

     total cpu time spent up to now is        3.0 secs

     Self-consistent Calculation

     iteration #  1     ecut=    50.00 Ry     beta= 0.30
     Davidson diagonalization with overlap
     ethr =  1.00E-02,  avg # of iterations =  2.0

     total cpu time spent up to now is        5.4 secs

     total energy              =    -923.47048046 Ry
     estimated scf accuracy    <       5.32560689 Ry

     total magnetization       =     0.00 Bohr mag/cell
     absolute magnetization    =     0.06 Bohr mag/cell

     iteration #  2     ecut=    50.00 Ry     beta= 0.30
     Davidson diagonalization with overlap
     ethr =  2.69E-03,  avg # of iterations =  1.0

     negative rho (up, down):  1.366E-07 1.373E-07

     total cpu time spent up to now is        7.3 secs

     total energy              =    -922.68489609 Ry
     estimated scf accuracy    <       1.96047883 Ry

     total magnetization       =    -0.00 Bohr mag/cell
     absolute magnetization    =     0.05 Bohr mag/cell

     iteration #  3     ecut=    50.00 Ry     beta= 0.30
     Davidson diagonalization with overlap
     ethr =  9.90E-04,  avg # of iterations =  2.0

     negative rho (up, down):  8.254E-07 8.345E-07

     total cpu time spent up to now is        9.4 secs

     total energy              =    -922.86002187 Ry
     estimated scf accuracy    <       1.17721200 Ry

     total magnetization       =    -0.00 Bohr mag/cell
     absolute magnetization    =     0.03 Bohr mag/cell

     iteration #  4     ecut=    50.00 Ry     beta= 0.30
     Davidson diagonalization with overlap
     ethr =  5.95E-04,  avg # of iterations =  2.0

     negative rho (up, down):  6.820E-07 6.883E-07

     total cpu time spent up to now is       11.4 secs

     total energy              =    -922.96485979 Ry
     estimated scf accuracy    <       0.15392348 Ry

     total magnetization       =     0.00 Bohr mag/cell
     absolute magnetization    =     0.03 Bohr mag/cell

     iteration #  5     ecut=    50.00 Ry     beta= 0.30
     Davidson diagonalization with overlap
     ethr =  7.77E-05,  avg # of iterations =  4.0

     negative rho (up, down):  7.561E-07 7.597E-07

     total cpu time spent up to now is       13.5 secs

     total energy              =    -922.96388685 Ry
     estimated scf accuracy    <       0.04731938 Ry

     total magnetization       =    -0.00 Bohr mag/cell
     absolute magnetization    =     0.02 Bohr mag/cell

     iteration #  6     ecut=    50.00 Ry     beta= 0.30
     Davidson diagonalization with overlap
     ethr =  2.39E-05,  avg # of iterations = 13.5

     negative rho (up, down):  1.124E-06 1.127E-06

     total cpu time spent up to now is       16.4 secs

     total energy              =    -922.97075320 Ry
     estimated scf accuracy    <       0.02035709 Ry

     total magnetization       =     0.00 Bohr mag/cell
     absolute magnetization    =     0.02 Bohr mag/cell

     iteration #  7     ecut=    50.00 Ry     beta= 0.30
     Davidson diagonalization with overlap
     ethr =  1.03E-05,  avg # of iterations =  2.0

     negative rho (up, down):  1.438E-06 1.440E-06

     total cpu time spent up to now is       18.4 secs

     total energy              =    -922.97036807 Ry
     estimated scf accuracy    <       0.00476164 Ry

     total magnetization       =     0.00 Bohr mag/cell
     absolute magnetization    =     0.02 Bohr mag/cell

     iteration #  8     ecut=    50.00 Ry     beta= 0.30
     Davidson diagonalization with overlap
     ethr =  2.40E-06,  avg # of iterations = 11.0

     negative rho (up, down):  1.530E-06 1.538E-06

     total cpu time spent up to now is       21.0 secs

     total energy              =    -922.97118315 Ry
     estimated scf accuracy    <       0.00076025 Ry

     total magnetization       =    -0.00 Bohr mag/cell
     absolute magnetization    =     0.01 Bohr mag/cell

     iteration #  9     ecut=    50.00 Ry     beta= 0.30
     Davidson diagonalization with overlap
     ethr =  3.84E-07,  avg # of iterations =  3.0

     negative rho (up, down):  1.501E-06 1.508E-06

     total cpu time spent up to now is       23.2 secs

     total energy              =    -922.97114816 Ry
     estimated scf accuracy    <       0.00036068 Ry

     total magnetization       =    -0.00 Bohr mag/cell
     absolute magnetization    =     0.01 Bohr mag/cell

     iteration # 10     ecut=    50.00 Ry     beta= 0.30
     Davidson diagonalization with overlap
     ethr =  1.82E-07,  avg # of iterations =  2.0

     negative rho (up, down):  1.500E-06 1.503E-06

     total cpu time spent up to now is       25.3 secs

     total energy              =    -922.97119073 Ry
     estimated scf accuracy    <       0.00001699 Ry

     total magnetization       =    -0.00 Bohr mag/cell
     absolute magnetization    =     0.01 Bohr mag/cell

     iteration # 11     ecut=    50.00 Ry     beta= 0.30
     Davidson diagonalization with overlap
     ethr =  8.58E-09,  avg # of iterations =  4.0

     negative rho (up, down):  1.501E-06 1.503E-06

     total cpu time spent up to now is       27.8 secs

     total energy              =    -922.97119415 Ry
     estimated scf accuracy    <       0.00000502 Ry

     total magnetization       =     0.00 Bohr mag/cell
     absolute magnetization    =     0.01 Bohr mag/cell

     iteration # 12     ecut=    50.00 Ry     beta= 0.30
     Davidson diagonalization with overlap
     ethr =  2.53E-09,  avg # of iterations =  2.0

     negative rho (up, down):  1.497E-06 1.497E-06

     Magnetic moment per site  (integrated on atomic sphere of radius R)
     atom   1 (R=0.046)  charge=  1.1271  magn= -0.0000
     atom   2 (R=0.046)  charge=  1.1717  magn= -0.0001
     atom   3 (R=0.046)  charge=  1.1949  magn=  0.0001
     atom   4 (R=0.046)  charge=  1.1234  magn=  0.0000
     atom   5 (R=0.046)  charge=  1.1704  magn=  0.0000
     atom   6 (R=0.046)  charge=  1.2020  magn= -0.0000
     atom   7 (R=0.046)  charge=  1.1274  magn= -0.0000
     atom   8 (R=0.046)  charge=  1.1716  magn= -0.0001
     atom   9 (R=0.046)  charge=  1.1951  magn=  0.0000
     atom  10 (R=0.046)  charge=  1.1270  magn= -0.0000
     atom  11 (R=0.046)  charge=  1.1719  magn=  0.0000
     atom  12 (R=0.046)  charge=  1.1946  magn= -0.0000
     atom  13 (R=0.046)  charge=  1.1183  magn=  0.0000
     atom  14 (R=0.046)  charge=  1.1718  magn= -0.0001
     atom  15 (R=0.046)  charge=  1.1840  magn=  0.0001
     atom  16 (R=0.046)  charge=  1.1194  magn= -0.0000
     atom  17 (R=0.046)  charge=  1.1719  magn= -0.0001
     atom  18 (R=0.046)  charge=  1.1829  magn=  0.0001
     atom  19 (R=0.046)  charge=  1.1189  magn=  0.0000
     atom  20 (R=0.046)  charge=  1.1724  magn=  0.0000
     atom  21 (R=0.046)  charge=  1.1839  magn= -0.0001
     atom  22 (R=0.046)  charge=  1.1178  magn=  0.0000
     atom  23 (R=0.046)  charge=  1.1712  magn= -0.0000
     atom  24 (R=0.046)  charge=  1.1827  magn=  0.0000
     atom  25 (R=0.046)  charge=  1.1251  magn=  0.0000
     atom  26 (R=0.046)  charge=  1.1708  magn=  0.0000
     atom  27 (R=0.046)  charge=  1.1970  magn= -0.0000
     atom  28 (R=0.046)  charge=  1.1278  magn=  0.0000
     atom  29 (R=0.046)  charge=  1.1719  magn=  0.0000
     atom  30 (R=0.046)  charge=  1.1965  magn= -0.0000
     atom  31 (R=0.046)  charge=  1.1281  magn=  0.0000
     atom  32 (R=0.046)  charge=  1.1717  magn=  0.0000
     atom  33 (R=0.046)  charge=  1.1971  magn= -0.0000
     atom  34 (R=0.046)  charge=  1.1294  magn= -0.0000
     atom  35 (R=0.046)  charge=  1.1706  magn=  0.0000
     atom  36 (R=0.046)  charge=  1.1969  magn= -0.0000
     atom  37 (R=0.046)  charge=  1.1159  magn= -0.0000
     atom  38 (R=0.046)  charge=  1.2119  magn=  0.0000
     atom  39 (R=0.046)  charge=  1.1912  magn= -0.0000
     atom  40 (R=0.046)  charge=  1.1180  magn= -0.0000
     atom  41 (R=0.046)  charge=  1.1705  magn=  0.0000
     atom  42 (R=0.046)  charge=  1.1850  magn= -0.0000
     atom  43 (R=0.046)  charge=  1.1185  magn= -0.0000
     atom  44 (R=0.046)  charge=  1.1704  magn=  0.0000
     atom  45 (R=0.046)  charge=  1.1850  magn= -0.0000
     atom  46 (R=0.046)  charge=  1.1187  magn= -0.0000
     atom  47 (R=0.046)  charge=  1.1708  magn= -0.0000
     atom  48 (R=0.046)  charge=  1.1857  magn=  0.0000
     atom  49 (R=0.051)  charge=  3.4982  magn=  0.0000

     total cpu time spent up to now is       29.8 secs

     End of self-consistent calculation

 ------ SPIN UP ------------


          k = 0.0000 0.0000 0.0000 ( 26858 PWs)   bands (ev):

   -23.4287 -21.6652 -21.5690 -17.6610 -17.6328 -17.6015 -17.4846 -17.4640
   -17.4631 -16.8694 -16.8451 -16.7958 -16.7289 -16.4132 -16.2788 -16.0982
   -16.0715 -15.9616 -15.9447 -15.8414 -15.6945 -15.4404 -14.9136 -14.7070
   -14.6882 -14.1712 -14.1464 -13.9917 -13.5477 -13.1746 -13.0609 -12.9790
   -12.9569 -12.3949 -12.1198 -11.9156 -11.8933 -11.6846 -11.2099 -10.9251
   -10.8991 -10.6987 -10.3935 -10.1087 -10.0427 -10.0268  -9.6207  -9.6027
    -9.5918  -9.5356  -9.5208  -9.5001  -9.4979  -7.5705  -7.5510  -6.9965
    -6.8980  -6.8125  -6.7078  -6.6856  -6.6601  -6.3432  -6.2535  -6.2149
    -6.0244  -5.9526  -5.9478  -5.6027  -5.5657  -5.5641  -5.4739  -5.4436
    -5.4355  -5.3715  -5.2936  -5.2711  -4.8967  -4.8897  -4.7735  -4.4941
    -4.4907  -4.3435  -4.0122  -3.9454  -3.8437  -3.6808  -3.6162  -3.5259
    -3.4635  -3.3008  -3.2118  -3.0770  -3.0711  -3.0171  -2.5099  -2.4632
    -2.1320  -2.1143  -2.0717  -0.8602  -0.2868  -0.2305  -0.0356   0.5351
     0.5835   0.7408   1.1568   1.1694   1.2173   1.2573   1.4686   1.5855
     2.1168   2.1740   2.2098   2.3683   2.4658   2.5211   2.5288

 ------ SPIN DOWN ----------


          k = 0.0000 0.0000 0.0000 ( 26858 PWs)   bands (ev):

   -23.4286 -21.6652 -21.5690 -17.6610 -17.6329 -17.6015 -17.4845 -17.4640
   -17.4630 -16.8695 -16.8451 -16.7958 -16.7290 -16.4133 -16.2788 -16.0982
   -16.0715 -15.9616 -15.9446 -15.8414 -15.6945 -15.4404 -14.9136 -14.7071
   -14.6882 -14.1711 -14.1464 -13.9917 -13.5476 -13.1745 -13.0609 -12.9790
   -12.9569 -12.3949 -12.1198 -11.9156 -11.8934 -11.6846 -11.2099 -10.9251
   -10.8991 -10.6987 -10.3935 -10.1087 -10.0427 -10.0268  -9.6207  -9.6028
    -9.5918  -9.5356  -9.5208  -9.5000  -9.4979  -7.5704  -7.5509  -6.9965
    -6.8980  -6.8125  -6.7078  -6.6856  -6.6602  -6.3432  -6.2535  -6.2149
    -6.0244  -5.9526  -5.9478  -5.6027  -5.5657  -5.5641  -5.4739  -5.4436
    -5.4355  -5.3716  -5.2936  -5.2712  -4.8967  -4.8897  -4.7735  -4.4942
    -4.4907  -4.3435  -4.0122  -3.9454  -3.8437  -3.6808  -3.6162  -3.5259
    -3.4635  -3.3008  -3.2118  -3.0770  -3.0711  -3.0171  -2.5098  -2.4632
    -2.1320  -2.1143  -2.0717  -0.8600  -0.2868  -0.2305  -0.0356   0.5351
     0.5835   0.7408   1.1568   1.1694   1.2173   1.2573   1.4686   1.5855
     2.1169   2.1741   2.2098   2.3683   2.4659   2.5211   2.5288

     the spin up/dw Fermi energies are    -1.5177   -1.5177 ev

!    total energy              =    -922.97119449 Ry
     total all-electron energy =     -3804.494782 Ry
     estimated scf accuracy    <       0.00000063 Ry
     smearing contrib. (-TS)   =      -0.00000000 Ry
     internal energy E=F+TS    =    -922.97119449 Ry

     The total energy is F=E-TS. E is the sum of the following terms:
     one-electron contribution =   -1261.35800569 Ry
     hartree contribution      =     676.82527166 Ry
     xc contribution           =    -225.63651188 Ry
     ewald contribution        =     192.78038993 Ry
     one-center paw contrib.   =    -305.58233851 Ry

     total magnetization       =    -0.00 Bohr mag/cell
     absolute magnetization    =     0.00 Bohr mag/cell

     convergence has been achieved in  12 iterations

     negative rho (up, down):  1.497E-06 1.497E-06

     Forces acting on atoms (cartesian axes, Ry/au):

     atom    1 type  1   force =     0.01529906   -0.01800374    0.02082199
     atom    2 type  1   force =     0.04757964   -0.04791293    0.04781700
     atom    3 type  1   force =     0.03851253   -0.03868081    0.03854250
     atom    4 type  1   force =    -0.03461555    0.03259969    0.05546114
     atom    5 type  1   force =    -0.05804749    0.06957038   -0.08184197
     atom    6 type  1   force =    -0.00086401    0.00346361   -0.00348648
     atom    7 type  1   force =     0.01678919    0.01741480   -0.01937649
     atom    8 type  1   force =     0.04756874    0.04793476   -0.04811486
     atom    9 type  1   force =     0.03940585    0.03929862   -0.03948095
     atom   10 type  1   force =    -0.01694078   -0.01711608   -0.01616287
     atom   11 type  1   force =    -0.04782660   -0.04784270   -0.04779823
     atom   12 type  1   force =    -0.03823459   -0.03847590   -0.03846806
     atom   13 type  1   force =    -0.05277189    0.05366896    0.05077713
     atom   14 type  1   force =     0.04980029   -0.05014320   -0.04986378
     atom   15 type  1   force =    -0.00415285    0.00429408    0.00411631
     atom   16 type  1   force =     0.05056632   -0.04988623    0.02873091
     atom   17 type  1   force =    -0.05511691    0.05454578   -0.05440152
     atom   18 type  1   force =     0.01241482   -0.01211247    0.00819069
     atom   19 type  1   force =     0.04770849    0.04540333   -0.05189842
     atom   20 type  1   force =    -0.05631798   -0.05568972    0.05538620
     atom   21 type  1   force =     0.01040081    0.00857053   -0.00996707
     atom   22 type  1   force =    -0.04739857   -0.04703527   -0.05128682
     atom   23 type  1   force =     0.05368911    0.05389165    0.05332044
     atom   24 type  1   force =    -0.00823880   -0.00948984   -0.00915884
     atom   25 type  1   force =     0.01825072   -0.01458795    0.05127265
     atom   26 type  1   force =     0.05195281   -0.05181677    0.05003639
     atom   27 type  1   force =     0.02985742   -0.02938900    0.03434431
     atom   28 type  1   force =    -0.01256023    0.01596521    0.02123377
     atom   29 type  1   force =    -0.04600013    0.04598808    0.04574074
     atom   30 type  1   force =    -0.04056786    0.04072054    0.04035210
     atom   31 type  1   force =     0.02629092    0.03736937   -0.01424078
     atom   32 type  1   force =     0.05312787    0.05187706   -0.05252538
     atom   33 type  1   force =     0.03225196    0.03429458   -0.03097608
     atom   34 type  1   force =    -0.03611857   -0.02773645   -0.01804188
     atom   35 type  1   force =    -0.05126871   -0.05220021   -0.05190276
     atom   36 type  1   force =    -0.03453755   -0.03300225   -0.03188741
     atom   37 type  1   force =    -0.01736330    0.01068599   -0.01621051
     atom   38 type  1   force =     0.19741618   -0.20103708   -0.15237479
     atom   39 type  1   force =    -0.20679278    0.21292430    0.14710174
     atom   40 type  1   force =     0.05652262   -0.05706133    0.04979538
     atom   41 type  1   force =    -0.05087271    0.05150853   -0.05128757
     atom   42 type  1   force =     0.00761549   -0.00745079    0.00544033
     atom   43 type  1   force =     0.05237602    0.05096784   -0.05334143
     atom   44 type  1   force =    -0.05093163   -0.05127245    0.05171617
     atom   45 type  1   force =     0.00672590    0.00640297   -0.00588563
     atom   46 type  1   force =    -0.05214894   -0.05285617   -0.05180499
     atom   47 type  1   force =     0.05148053    0.05164441    0.05133831
     atom   48 type  1   force =    -0.00524566   -0.00562341   -0.00470755
     atom   49 type  2   force =     0.01133079   -0.02458233    0.14495692

     Total force =     0.677157     Total SCF correction =     0.001426

     BFGS Geometry Optimization
     Energy error            =      0.0E+00 Ry
     Gradient error          =      2.1E-01 Ry/Bohr

     number of scf cycles    =   1
     number of bfgs steps    =   0

     energy             new  =    -922.9711944874 Ry

     new trust radius        =       0.3312686706 bohr
     new conv_thr            =       0.0000010000 Ry


ATOMIC_POSITIONS (angstrom)
C             6.1760959139        4.5984728306        6.1800185237
C             7.7091780591        3.0606455716        7.7093036658
C             6.9943799519        3.7785309990        6.9943958116
C             4.5896822385        6.1862510131        6.1983487729
C             3.0552825917        7.7208150581        7.6406910955
C             3.7985427855        6.9758328630        6.9721550327
C             6.1778844571        6.1782155161        4.5977464008
C             7.7091722928        7.7093659802        3.0605387139
C             6.9948526800        6.9947959341        3.7781075807
C             4.5940353269        4.5939425596        4.5944469786
C             3.0596912540        3.0596827361        3.0597062658
C             3.7757671239        3.7756394332        3.7756435781
C             6.1970743162        4.5744003912        4.5728701019
C             7.7903531764        2.9864653618        2.9866132262
C             7.0508024062        3.7232723267        3.7241782590
C             4.5727585434        6.1986013446        4.5612037428
C             2.9838333856        7.7938643836        2.9842119551
C             3.7275696422        7.0465903560        3.7263343272
C             4.5712462462        4.5690264052        6.1985365379
C             2.9831978085        2.9835302719        7.7933091136
C             3.7265038729        3.7255353277        7.0477256539
C             6.2039177592        6.2041100090        6.2018601829
C             7.7924110559        7.7935182315        7.7932159598
C             7.0506402155        7.0509781939        7.0501533504
C             0.6776578638       10.0952803876        0.6951323184
C             2.2154922447        8.5615797486        2.2144781165
C             1.4917998648        9.2824480086        1.4941742271
C            10.0953534105        0.6754484270        0.6792364251
C             8.5646577789        2.2113358441        2.2122049591
C             9.2765324144        1.4965483828        1.4973534099
C             0.6819125569        0.6867750201       10.0954641032
C             2.2151140569        2.2144521605        8.5612047670
C             1.4930670025        1.4931479088        9.2816081645
C            10.0888868784       10.0933225052       10.0974526484
C             8.5628697670        8.5623768408        8.5625342423
C             9.2827235182        9.2835359634        9.2831259094
C             0.7198117386       10.0516547848       10.0374217687
C             2.3634681432        8.4026157574        8.4273667310
C             1.4425699733        9.3316746856        9.2968428884
C            10.0749104832        0.6978044442       10.0723505793
C             8.4810793205        2.2862571377        8.4808597876
C             9.2220299448        1.5470572091        9.2208788969
C            10.0737161981       10.0739710192        0.7007729304
C             8.4810481405        8.4818677899        2.2863670182
C             9.2225591924        9.2223883077        1.5488854598
C             0.6984039668        0.6970297178        0.6975859824
C             2.2872423220        2.2863290434        2.2871670629
C             1.5482241184        1.5470242189        1.5475088739
O             2.8759959975        7.7579915887        9.5387078988



     Writing config-only to output data dir ./pwscf.save/
     NEW-OLD atomic charge density approx. for the potential

     Check: negative core charge=   -0.000004

     negative rho (up, down):  1.532E-06 1.564E-06
     Generating pointlists ...

     total cpu time spent up to now is       33.7 secs

     Self-consistent Calculation

     iteration #  1     ecut=    50.00 Ry     beta= 0.30
     Davidson diagonalization with overlap
     c_bands:  1 eigenvalues not converged
     c_bands:  1 eigenvalues not converged
     ethr =  1.00E-06,  avg # of iterations = 20.0

     negative rho (up, down):  1.420E-06 1.422E-06

     total cpu time spent up to now is       40.1 secs

     total energy              =    -922.84519276 Ry
     estimated scf accuracy    <       0.48499245 Ry

     total magnetization       =    -0.00 Bohr mag/cell
     absolute magnetization    =     0.00 Bohr mag/cell

     iteration #  2     ecut=    50.00 Ry     beta= 0.30
     Davidson diagonalization with overlap
     ethr =  2.45E-04,  avg # of iterations =  2.0

     negative rho (up, down):  1.569E-06 1.569E-06

     total cpu time spent up to now is       42.2 secs

     total energy              =    -922.88957768 Ry
     estimated scf accuracy    <       0.22979490 Ry

     total magnetization       =    -0.00 Bohr mag/cell
     absolute magnetization    =     0.00 Bohr mag/cell

     iteration #  3     ecut=    50.00 Ry     beta= 0.30
     Davidson diagonalization with overlap
     ethr =  1.16E-04,  avg # of iterations =  2.0

     negative rho (up, down):  1.747E-06 1.747E-06

     total cpu time spent up to now is       44.2 secs

     total energy              =    -922.90742090 Ry
     estimated scf accuracy    <       0.17024522 Ry

     total magnetization       =    -0.00 Bohr mag/cell
     absolute magnetization    =     0.00 Bohr mag/cell

     iteration #  4     ecut=    50.00 Ry     beta= 0.30
     Davidson diagonalization with overlap
     ethr =  8.60E-05,  avg # of iterations =  1.0

     negative rho (up, down):  1.448E-06 1.448E-06

     total cpu time spent up to now is       46.1 secs

     total energy              =    -922.91958999 Ry
     estimated scf accuracy    <       0.02642609 Ry

     total magnetization       =     0.00 Bohr mag/cell
     absolute magnetization    =     0.00 Bohr mag/cell

     iteration #  5     ecut=    50.00 Ry     beta= 0.30
     Davidson diagonalization with overlap
     ethr =  1.33E-05,  avg # of iterations =  2.0

     negative rho (up, down):  1.389E-06 1.389E-06

     total cpu time spent up to now is       48.2 secs

     total energy              =    -922.92027669 Ry
     estimated scf accuracy    <       0.01410548 Ry

     total magnetization       =    -0.00 Bohr mag/cell
     absolute magnetization    =     0.00 Bohr mag/cell

     iteration #  6     ecut=    50.00 Ry     beta= 0.30
     Davidson diagonalization with overlap
     ethr =  7.12E-06,  avg # of iterations =  2.0

     negative rho (up, down):  1.373E-06 1.373E-06

     total cpu time spent up to now is       50.3 secs

     total energy              =    -922.92154914 Ry
     estimated scf accuracy    <       0.00290723 Ry

     total magnetization       =    -0.00 Bohr mag/cell
     absolute magnetization    =     0.00 Bohr mag/cell

     iteration #  7     ecut=    50.00 Ry     beta= 0.30
     Davidson diagonalization with overlap
     ethr =  1.47E-06,  avg # of iterations =  2.0

     negative rho (up, down):  1.385E-06 1.385E-06

     total cpu time spent up to now is       52.3 secs

     total energy              =    -922.92186486 Ry
     estimated scf accuracy    <       0.00047084 Ry

     total magnetization       =    -0.00 Bohr mag/cell
     absolute magnetization    =     0.00 Bohr mag/cell

     iteration #  8     ecut=    50.00 Ry     beta= 0.30
     Davidson diagonalization with overlap
     ethr =  2.38E-07,  avg # of iterations =  2.0

     negative rho (up, down):  1.415E-06 1.415E-06

     total cpu time spent up to now is       54.3 secs

     total energy              =    -922.92191280 Ry
     estimated scf accuracy    <       0.00009875 Ry

     total magnetization       =     0.00 Bohr mag/cell
     absolute magnetization    =     0.00 Bohr mag/cell

     iteration #  9     ecut=    50.00 Ry     beta= 0.30
     Davidson diagonalization with overlap
     ethr =  4.99E-08,  avg # of iterations =  2.0

     negative rho (up, down):  1.420E-06 1.419E-06

     total cpu time spent up to now is       56.4 secs

     total energy              =    -922.92192378 Ry
     estimated scf accuracy    <       0.00001326 Ry

     total magnetization       =     0.00 Bohr mag/cell
     absolute magnetization    =     0.00 Bohr mag/cell

     iteration # 10     ecut=    50.00 Ry     beta= 0.30
     Davidson diagonalization with overlap
     ethr =  6.70E-09,  avg # of iterations =  4.0

     negative rho (up, down):  1.417E-06 1.417E-06

     total cpu time spent up to now is       58.7 secs

     total energy              =    -922.92192554 Ry
     estimated scf accuracy    <       0.00000261 Ry

     total magnetization       =     0.00 Bohr mag/cell
     absolute magnetization    =     0.00 Bohr mag/cell

     iteration # 11     ecut=    50.00 Ry     beta= 0.30
     Davidson diagonalization with overlap
     ethr =  1.32E-09,  avg # of iterations =  4.0

     negative rho (up, down):  1.417E-06 1.417E-06

     Magnetic moment per site  (integrated on atomic sphere of radius R)
     atom   1 (R=0.046)  charge=  1.1300  magn= -0.0000
     atom   2 (R=0.046)  charge=  1.1968  magn= -0.0000
     atom   3 (R=0.046)  charge=  1.1851  magn=  0.0000
     atom   4 (R=0.046)  charge=  1.1424  magn=  0.0000
     atom   5 (R=0.046)  charge=  1.2414  magn=  0.0000
     atom   6 (R=0.046)  charge=  1.2020  magn= -0.0000
     atom   7 (R=0.046)  charge=  1.1307  magn= -0.0000
     atom   8 (R=0.046)  charge=  1.1972  magn= -0.0000
     atom   9 (R=0.046)  charge=  1.1852  magn=  0.0000
     atom  10 (R=0.046)  charge=  1.1296  magn=  0.0000
     atom  11 (R=0.046)  charge=  1.1965  magn=  0.0000
     atom  12 (R=0.046)  charge=  1.1834  magn= -0.0000
     atom  13 (R=0.046)  charge=  1.1150  magn=  0.0000
     atom  14 (R=0.046)  charge=  1.1716  magn= -0.0000
     atom  15 (R=0.046)  charge=  1.1428  magn=  0.0000
     atom  16 (R=0.046)  charge=  1.1146  magn= -0.0000
     atom  17 (R=0.046)  charge=  1.1698  magn= -0.0000
     atom  18 (R=0.046)  charge=  1.1403  magn=  0.0000
     atom  19 (R=0.046)  charge=  1.1147  magn=  0.0000
     atom  20 (R=0.046)  charge=  1.1702  magn=  0.0000
     atom  21 (R=0.046)  charge=  1.1407  magn= -0.0000
     atom  22 (R=0.046)  charge=  1.1140  magn=  0.0000
     atom  23 (R=0.046)  charge=  1.1704  magn= -0.0000
     atom  24 (R=0.046)  charge=  1.1409  magn=  0.0000
     atom  25 (R=0.046)  charge=  1.1241  magn=  0.0000
     atom  26 (R=0.046)  charge=  1.1936  magn=  0.0000
     atom  27 (R=0.046)  charge=  1.1835  magn= -0.0000
     atom  28 (R=0.046)  charge=  1.1291  magn=  0.0000
     atom  29 (R=0.046)  charge=  1.1990  magn=  0.0000
     atom  30 (R=0.046)  charge=  1.1860  magn= -0.0000
     atom  31 (R=0.046)  charge=  1.1327  magn=  0.0000
     atom  32 (R=0.046)  charge=  1.1961  magn=  0.0000
     atom  33 (R=0.046)  charge=  1.1821  magn=  0.0000
     atom  34 (R=0.046)  charge=  1.1355  magn= -0.0000
     atom  35 (R=0.046)  charge=  1.1963  magn=  0.0000
     atom  36 (R=0.046)  charge=  1.1833  magn= -0.0000
     atom  37 (R=0.046)  charge=  1.1760  magn= -0.0000
     atom  38 (R=0.046)  charge=  1.1517  magn=  0.0000
     atom  39 (R=0.046)  charge=  1.1390  magn=  0.0000
     atom  40 (R=0.046)  charge=  1.1108  magn= -0.0000
     atom  41 (R=0.046)  charge=  1.1724  magn=  0.0000
     atom  42 (R=0.046)  charge=  1.1411  magn= -0.0000
     atom  43 (R=0.046)  charge=  1.1128  magn= -0.0000
     atom  44 (R=0.046)  charge=  1.1722  magn=  0.0000
     atom  45 (R=0.046)  charge=  1.1422  magn= -0.0000
     atom  46 (R=0.046)  charge=  1.1131  magn= -0.0000
     atom  47 (R=0.046)  charge=  1.1726  magn= -0.0000
     atom  48 (R=0.046)  charge=  1.1430  magn=  0.0000
     atom  49 (R=0.051)  charge=  3.4722  magn= -0.0000

     total cpu time spent up to now is       60.9 secs

     End of self-consistent calculation

 ------ SPIN UP ------------


          k = 0.0000 0.0000 0.0000 ( 26858 PWs)   bands (ev):

   -22.5069 -21.8889 -21.7944 -17.7436 -17.6763 -17.6365 -17.6324 -17.4912
   -17.4477 -16.9768 -16.9247 -16.9220 -16.8824 -16.7342 -16.3261 -16.2929
   -16.2578 -15.8391 -15.7929 -15.7242 -15.5376 -15.3373 -14.7717 -14.5543
   -14.5216 -14.3393 -14.2969 -14.1244 -13.9039 -13.4291 -12.8017 -12.7636
   -12.7545 -12.3645 -12.3140 -12.2756 -12.1635 -11.5074 -11.2711 -11.1796
   -11.1466 -10.8454 -10.4494 -10.0979  -9.9918  -9.9454  -9.6968  -9.6919
    -9.6874  -9.6571  -9.6391  -9.5159  -9.4812  -7.3901  -7.3503  -7.0091
    -6.9381  -6.7759  -6.7303  -6.7249  -6.6822  -6.4054  -6.3106  -6.2750
    -6.0399  -6.0280  -6.0208  -5.7132  -5.6787  -5.6735  -5.5983  -5.5651
    -5.5603  -5.4959  -5.4723  -5.1483  -5.1354  -5.0257  -4.7958  -4.7621
    -4.6580  -4.6202  -3.8751  -3.7142  -3.6093  -3.5006  -3.3530  -3.2730
    -3.2318  -3.0998  -3.0442  -2.9377  -2.9245  -2.8701  -2.6381  -2.3933
    -2.3423  -2.0090  -1.4011  -0.7852  -0.6791  -0.5070  -0.1575   0.1054
     0.3236   0.5120   0.6900   0.8549   0.9180   0.9276   1.0492   1.1133
     1.5451   2.0319   2.0620   2.3463   2.3911   2.4629   2.4790

 ------ SPIN DOWN ----------


          k = 0.0000 0.0000 0.0000 ( 26858 PWs)   bands (ev):

   -22.5069 -21.8889 -21.7944 -17.7436 -17.6763 -17.6365 -17.6324 -17.4912
   -17.4477 -16.9768 -16.9247 -16.9220 -16.8824 -16.7342 -16.3261 -16.2929
   -16.2578 -15.8391 -15.7929 -15.7242 -15.5376 -15.3373 -14.7717 -14.5543
   -14.5216 -14.3393 -14.2969 -14.1244 -13.9039 -13.4291 -12.8017 -12.7636
   -12.7545 -12.3645 -12.3140 -12.2756 -12.1635 -11.5074 -11.2711 -11.1796
   -11.1466 -10.8454 -10.4494 -10.0979  -9.9918  -9.9454  -9.6968  -9.6919
    -9.6874  -9.6571  -9.6391  -9.5159  -9.4812  -7.3901  -7.3503  -7.0091
    -6.9381  -6.7759  -6.7303  -6.7249  -6.6822  -6.4054  -6.3106  -6.2750
    -6.0399  -6.0280  -6.0208  -5.7132  -5.6787  -5.6735  -5.5983  -5.5651
    -5.5603  -5.4959  -5.4723  -5.1483  -5.1354  -5.0257  -4.7958  -4.7621
    -4.6580  -4.6202  -3.8751  -3.7142  -3.6093  -3.5006  -3.3530  -3.2730
    -3.2318  -3.0998  -3.0442  -2.9377  -2.9245  -2.8701  -2.6381  -2.3933
    -2.3423  -2.0090  -1.4011  -0.7852  -0.6791  -0.5070  -0.1575   0.1054
     0.3236   0.5120   0.6900   0.8549   0.9180   0.9276   1.0492   1.1133
     1.5451   2.0319   2.0620   2.3463   2.3911   2.4629   2.4790

     the spin up/dw Fermi energies are    -1.0249   -1.0249 ev

!    total energy              =    -922.92192588 Ry
     total all-electron energy =     -3804.445514 Ry
     estimated scf accuracy    <       0.00000060 Ry
     smearing contrib. (-TS)   =      -0.00000000 Ry
     internal energy E=F+TS    =    -922.92192588 Ry

     The total energy is F=E-TS. E is the sum of the following terms:
     one-electron contribution =   -1254.22321311 Ry
     hartree contribution      =     672.99985198 Ry
     xc contribution           =    -225.37976870 Ry
     ewald contribution        =     189.25638435 Ry
     one-center paw contrib.   =    -305.57518040 Ry

     total magnetization       =     0.00 Bohr mag/cell
     absolute magnetization    =     0.00 Bohr mag/cell

     convergence has been achieved in  11 iterations

     negative rho (up, down):  1.417E-06 1.417E-06

     Forces acting on atoms (cartesian axes, Ry/au):

     atom    1 type  1   force =     0.01528514   -0.01569490    0.01908337
     atom    2 type  1   force =    -0.03575976    0.03566224   -0.03523997
     atom    3 type  1   force =     0.02420003   -0.02450026    0.02454956
     atom    4 type  1   force =     0.02165865   -0.02213834   -0.02088019
     atom    5 type  1   force =     0.17716017   -0.16460104   -0.31574720
     atom    6 type  1   force =    -0.05997210    0.06277196    0.04683492
     atom    7 type  1   force =     0.01552994    0.01793951   -0.01556370
     atom    8 type  1   force =    -0.03547971   -0.03508326    0.03475554
     atom    9 type  1   force =     0.02500043    0.02486314   -0.02413393
     atom   10 type  1   force =    -0.01751284   -0.01585035   -0.01482274
     atom   11 type  1   force =     0.03720299    0.03735654    0.03681968
     atom   12 type  1   force =    -0.02575078   -0.02592180   -0.02476294
     atom   13 type  1   force =     0.01460620   -0.01334932   -0.01353703
     atom   14 type  1   force =    -0.10458499    0.10387394    0.10395749
     atom   15 type  1   force =     0.05010792   -0.04981636   -0.05043074
     atom   16 type  1   force =    -0.00948190    0.01003858   -0.01904997
     atom   17 type  1   force =     0.11471973   -0.11583012    0.11564106
     atom   18 type  1   force =    -0.05719189    0.05778937   -0.06326948
     atom   19 type  1   force =    -0.01396434   -0.00993528    0.01116389
     atom   20 type  1   force =     0.11925067    0.11932318   -0.12112592
     atom   21 type  1   force =    -0.06170308   -0.06369703    0.06220821
     atom   22 type  1   force =     0.00847232    0.01336930    0.01053421
     atom   23 type  1   force =    -0.11603020   -0.11632541   -0.11747741
     atom   24 type  1   force =     0.06043449    0.05928812    0.05956310
     atom   25 type  1   force =     0.00825300   -0.00719605    0.04310032
     atom   26 type  1   force =    -0.04661226    0.04657651   -0.04986096
     atom   27 type  1   force =     0.03378722   -0.03272950    0.04033835
     atom   28 type  1   force =    -0.01322053    0.01475958    0.01783400
     atom   29 type  1   force =     0.02891317   -0.02897155   -0.02915643
     atom   30 type  1   force =    -0.01950492    0.01982172    0.01960450
     atom   31 type  1   force =     0.00645075    0.04964619   -0.00332567
     atom   32 type  1   force =    -0.04993767   -0.05304247    0.05042676
     atom   33 type  1   force =     0.03722966    0.04296224   -0.03273714
     atom   34 type  1   force =    -0.04858433   -0.00625528   -0.00273922
     atom   35 type  1   force =     0.05025747    0.04726470    0.04751923
     atom   36 type  1   force =    -0.04301573   -0.03732939   -0.03358572
     atom   37 type  1   force =    -0.12631910    0.11862872    0.10642901
     atom   38 type  1   force =    -0.25789183    0.23968681    0.49144998
     atom   39 type  1   force =     0.26384416   -0.25580622   -0.32214941
     atom   40 type  1   force =    -0.00599485    0.00516737   -0.01346705
     atom   41 type  1   force =     0.11044346   -0.10980697    0.10931944
     atom   42 type  1   force =    -0.05150690    0.05182576   -0.05401460
     atom   43 type  1   force =    -0.00799210   -0.01577595    0.00565804
     atom   44 type  1   force =     0.11052155    0.11011502   -0.10956346
     atom   45 type  1   force =    -0.05351416   -0.05421569    0.05545365
     atom   46 type  1   force =     0.01635726    0.00808295    0.00731765
     atom   47 type  1   force =    -0.10883842   -0.10884770   -0.10909230
     atom   48 type  1   force =     0.05355741    0.05298082    0.05513956
     atom   49 type  2   force =    -0.03287940    0.03292597    0.02103168

     Total force =     1.102990     Total SCF correction =     0.001058
     Energy error            =      4.9E-02 Ry
     Gradient error          =      4.9E-01 Ry/Bohr

     number of scf cycles    =   2
     number of bfgs steps    =   1

     energy             old  =    -922.9711944874 Ry
     energy             new  =    -922.9219258845 Ry

     CASE: energy            _new > energy            _old

     new trust radius        =       0.1495642237 bohr
     new conv_thr            =       0.0000010000 Ry


ATOMIC_POSITIONS (angstrom)
C             6.1716552176        4.6036985860        6.1739747444
C             7.6953676215        3.0745527497        7.6954243316
C             6.9832013280        3.7897584673        6.9832084884
C             4.5997297287        6.1767886459        6.1822506537
C             3.0721314222        7.7006216008        7.6644464978
C             3.7987935726        6.9748275178        6.9731670172
C             6.1730112363        6.1731607059        4.6033706108
C             7.6953650181        7.6954524659        3.0745045045
C             6.9834147596        6.9833891394        3.7895672985
C             4.5989525470        4.5989106636        4.5991384033
C             3.0735733748        3.0735695290        3.0735801524
C             3.7868650752        3.7868074242        3.7868092956
C             6.2123918557        4.5588224696        4.5581315606
C             7.7758981743        3.0010198977        3.0010866569
C             7.0520078101        3.7220259309        3.7229834604
C             4.5580811931        6.2130812925        4.5528643255
C             2.9998315889        7.7780319572        3.0000025089
C             3.7239661224        7.0501061150        3.7239569019
C             4.5573984073        4.5558476622        6.2136005438
C             2.9995446327        2.9996947363        7.7772327480
C             3.7234849391        3.7230476514        7.0506186898
C             6.2176756394        6.2177624381        6.2167466660
C             7.7768272846        7.7778756732        7.7777392008
C             7.0530316044        7.0537327088        7.0528117901
C             0.6723604211       10.0995146784        0.6802499485
C             2.2004124513        8.5766200529        2.1999545834
C             1.4831334682        9.2909784440        1.4842054671
C            10.0989991367        0.6708143735        0.6730731245
C             8.5780097503        2.1979873705        2.1989282774
C             9.2883076172        1.4847288619        1.4856408337
C             0.6742813691        0.6759282078       10.0995976241
C             2.1996931928        2.1993943537        8.5764507528
C             1.4837055671        1.4831935847        9.2905992635
C            10.0993706322       10.1013732698       10.1026894739
C             8.5777509931        8.5775284422        8.5775995073
C             9.2927483661        9.2931151763        9.2923815305
C             0.7248515993       10.0485530742       10.0421270213
C             2.3061662373        8.4609686645        8.4715949507
C             1.5025935259        9.2698714025        9.2541452226
C            10.0585042598        0.7143670330       10.0578970017
C             8.4958456042        2.2713063030        8.4957464875
C             9.2198194765        1.5492198726        9.2192997908
C            10.0585135638       10.0591771236        0.7162557832
C             8.4958315268        8.4967501004        2.2713559129
C             9.2206069369        9.2205297843        1.5505938188
C             0.7135406893        0.7123717200        0.7126228674
C             2.2722996139        2.2713387677        2.2722656352
C             1.5497467194        1.5486564670        1.5488752835
O             2.8727071281        7.7651268429        9.4966327871



     Writing config-only to output data dir ./pwscf.save/
     NEW-OLD atomic charge density approx. for the potential

     Check: negative core charge=   -0.000004

     negative rho (up, down):  1.422E-06 1.422E-06
     Generating pointlists ...

     total cpu time spent up to now is       65.2 secs

     Self-consistent Calculation

     iteration #  1     ecut=    50.00 Ry     beta= 0.30
     Davidson diagonalization with overlap
     ethr =  1.00E-06,  avg # of iterations = 15.0

     negative rho (up, down):  1.463E-06 1.463E-06

     total cpu time spent up to now is       70.5 secs

     total energy              =    -923.04182886 Ry
     estimated scf accuracy    <       0.13884226 Ry

     total magnetization       =     0.00 Bohr mag/cell
     absolute magnetization    =     0.00 Bohr mag/cell

     iteration #  2     ecut=    50.00 Ry     beta= 0.30
     Davidson diagonalization with overlap
     ethr =  7.01E-05,  avg # of iterations =  2.0

     negative rho (up, down):  1.482E-06 1.482E-06

     total cpu time spent up to now is       72.6 secs

     total energy              =    -923.05738072 Ry
     estimated scf accuracy    <       0.04380148 Ry

     total magnetization       =     0.00 Bohr mag/cell
     absolute magnetization    =     0.00 Bohr mag/cell

     iteration #  3     ecut=    50.00 Ry     beta= 0.30
     Davidson diagonalization with overlap
     ethr =  2.21E-05,  avg # of iterations =  2.0

     negative rho (up, down):  1.527E-06 1.527E-06

     total cpu time spent up to now is       74.7 secs

     total energy              =    -923.06028981 Ry
     estimated scf accuracy    <       0.02490826 Ry

     total magnetization       =     0.00 Bohr mag/cell
     absolute magnetization    =     0.00 Bohr mag/cell

     iteration #  4     ecut=    50.00 Ry     beta= 0.30
     Davidson diagonalization with overlap
     ethr =  1.26E-05,  avg # of iterations =  2.0

     negative rho (up, down):  1.495E-06 1.495E-06

     total cpu time spent up to now is       76.7 secs

     total energy              =    -923.06223965 Ry
     estimated scf accuracy    <       0.00675577 Ry

     total magnetization       =     0.00 Bohr mag/cell
     absolute magnetization    =     0.00 Bohr mag/cell

     iteration #  5     ecut=    50.00 Ry     beta= 0.30
     Davidson diagonalization with overlap
     ethr =  3.41E-06,  avg # of iterations =  2.0

     negative rho (up, down):  1.516E-06 1.516E-06

     total cpu time spent up to now is       78.7 secs

     total energy              =    -923.06259106 Ry
     estimated scf accuracy    <       0.00101531 Ry

     total magnetization       =     0.00 Bohr mag/cell
     absolute magnetization    =     0.00 Bohr mag/cell

     iteration #  6     ecut=    50.00 Ry     beta= 0.30
     Davidson diagonalization with overlap
     ethr =  5.13E-07,  avg # of iterations =  4.0

     negative rho (up, down):  1.519E-06 1.519E-06

     total cpu time spent up to now is       80.8 secs

     total energy              =    -923.06270532 Ry
     estimated scf accuracy    <       0.00040094 Ry

     total magnetization       =    -0.00 Bohr mag/cell
     absolute magnetization    =     0.00 Bohr mag/cell

     iteration #  7     ecut=    50.00 Ry     beta= 0.30
     Davidson diagonalization with overlap
     ethr =  2.02E-07,  avg # of iterations =  2.0

     negative rho (up, down):  1.511E-06 1.511E-06

     total cpu time spent up to now is       82.8 secs

     total energy              =    -923.06275678 Ry
     estimated scf accuracy    <       0.00005847 Ry

     total magnetization       =     0.00 Bohr mag/cell
     absolute magnetization    =     0.00 Bohr mag/cell

     iteration #  8     ecut=    50.00 Ry     beta= 0.30
     Davidson diagonalization with overlap
     ethr =  2.95E-08,  avg # of iterations =  4.0

     negative rho (up, down):  1.512E-06 1.512E-06

     total cpu time spent up to now is       85.1 secs

     total energy              =    -923.06276368 Ry
     estimated scf accuracy    <       0.00002069 Ry

     total magnetization       =    -0.00 Bohr mag/cell
     absolute magnetization    =     0.00 Bohr mag/cell

     iteration #  9     ecut=    50.00 Ry     beta= 0.30
     Davidson diagonalization with overlap
     ethr =  1.05E-08,  avg # of iterations =  2.0

     negative rho (up, down):  1.507E-06 1.507E-06

     total cpu time spent up to now is       87.3 secs

     total energy              =    -923.06276676 Ry
     estimated scf accuracy    <       0.00000239 Ry

     total magnetization       =    -0.00 Bohr mag/cell
     absolute magnetization    =     0.00 Bohr mag/cell

     iteration # 10     ecut=    50.00 Ry     beta= 0.30
     Davidson diagonalization with overlap
     ethr =  1.21E-09,  avg # of iterations =  4.0

     negative rho (up, down):  1.496E-06 1.496E-06

     Magnetic moment per site  (integrated on atomic sphere of radius R)
     atom   1 (R=0.046)  charge=  1.1286  magn= -0.0000
     atom   2 (R=0.046)  charge=  1.1814  magn= -0.0000
     atom   3 (R=0.046)  charge=  1.1903  magn=  0.0000
     atom   4 (R=0.046)  charge=  1.1321  magn=  0.0000
     atom   5 (R=0.046)  charge=  1.1968  magn=  0.0000
     atom   6 (R=0.046)  charge=  1.2020  magn= -0.0000
     atom   7 (R=0.046)  charge=  1.1289  magn= -0.0000
     atom   8 (R=0.046)  charge=  1.1816  magn= -0.0000
     atom   9 (R=0.046)  charge=  1.1905  magn=  0.0000
     atom  10 (R=0.046)  charge=  1.1274  magn=  0.0000
     atom  11 (R=0.046)  charge=  1.1818  magn=  0.0000
     atom  12 (R=0.046)  charge=  1.1895  magn= -0.0000
     atom  13 (R=0.046)  charge=  1.1168  magn= -0.0000
     atom  14 (R=0.046)  charge=  1.1702  magn= -0.0000
     atom  15 (R=0.046)  charge=  1.1644  magn=  0.0000
     atom  16 (R=0.046)  charge=  1.1176  magn= -0.0000
     atom  17 (R=0.046)  charge=  1.1688  magn= -0.0000
     atom  18 (R=0.046)  charge=  1.1625  magn=  0.0000
     atom  19 (R=0.046)  charge=  1.1174  magn=  0.0000
     atom  20 (R=0.046)  charge=  1.1692  magn=  0.0000
     atom  21 (R=0.046)  charge=  1.1631  magn= -0.0000
     atom  22 (R=0.046)  charge=  1.1160  magn=  0.0000
     atom  23 (R=0.046)  charge=  1.1678  magn= -0.0000
     atom  24 (R=0.046)  charge=  1.1623  magn=  0.0000
     atom  25 (R=0.046)  charge=  1.1244  magn=  0.0000
     atom  26 (R=0.046)  charge=  1.1796  magn=  0.0000
     atom  27 (R=0.046)  charge=  1.1913  magn= -0.0000
     atom  28 (R=0.046)  charge=  1.1285  magn=  0.0000
     atom  29 (R=0.046)  charge=  1.1833  magn=  0.0000
     atom  30 (R=0.046)  charge=  1.1921  magn= -0.0000
     atom  31 (R=0.046)  charge=  1.1299  magn=  0.0000
     atom  32 (R=0.046)  charge=  1.1812  magn=  0.0000
     atom  33 (R=0.046)  charge=  1.1907  magn=  0.0000
     atom  34 (R=0.046)  charge=  1.1320  magn= -0.0000
     atom  35 (R=0.046)  charge=  1.1807  magn= -0.0000
     atom  36 (R=0.046)  charge=  1.1908  magn=  0.0000
     atom  37 (R=0.046)  charge=  1.1370  magn= -0.0000
     atom  38 (R=0.046)  charge=  1.1608  magn= -0.0000
     atom  39 (R=0.046)  charge=  1.1415  magn=  0.0000
     atom  40 (R=0.046)  charge=  1.1145  magn=  0.0000
     atom  41 (R=0.046)  charge=  1.1695  magn=  0.0000
     atom  42 (R=0.046)  charge=  1.1642  magn= -0.0000
     atom  43 (R=0.046)  charge=  1.1157  magn=  0.0000
     atom  44 (R=0.046)  charge=  1.1694  magn=  0.0000
     atom  45 (R=0.046)  charge=  1.1647  magn= -0.0000
     atom  46 (R=0.046)  charge=  1.1163  magn= -0.0000
     atom  47 (R=0.046)  charge=  1.1700  magn= -0.0000
     atom  48 (R=0.046)  charge=  1.1654  magn=  0.0000
     atom  49 (R=0.051)  charge=  3.4896  magn= -0.0000

     total cpu time spent up to now is       89.5 secs

     End of self-consistent calculation

 ------ SPIN UP ------------


          k = 0.0000 0.0000 0.0000 ( 26858 PWs)   bands (ev):

   -23.0236 -21.7190 -21.7051 -17.6628 -17.6365 -17.6272 -17.5163 -17.4822
   -17.4552 -16.9002 -16.8670 -16.8367 -16.7851 -16.5319 -16.1621 -16.1270
   -16.0976 -15.9539 -15.9266 -15.7612 -15.6027 -15.3404 -14.6765 -14.6389
   -14.6162 -14.2472 -14.2165 -14.0705 -13.7381 -13.2946 -12.9650 -12.8971
   -12.8717 -12.3964 -12.2983 -12.1063 -12.0774 -11.6121 -11.3541 -11.0585
   -11.0282 -10.7996 -10.4479 -10.1175 -10.0143  -9.9868  -9.6503  -9.6273
    -9.6199  -9.5866  -9.5829  -9.5307  -9.5053  -7.3845  -7.3291  -6.9997
    -6.8865  -6.7761  -6.7473  -6.6897  -6.6814  -6.3710  -6.2753  -6.2361
    -6.0389  -5.9875  -5.9822  -5.6493  -5.6116  -5.6085  -5.5200  -5.4882
    -5.4856  -5.3806  -5.3669  -5.1260  -5.0065  -4.9961  -4.8755  -4.6253
    -4.6070  -4.4644  -3.9408  -3.8421  -3.7415  -3.5944  -3.4994  -3.4122
    -3.3573  -3.2112  -3.1401  -3.0154  -3.0122  -2.9546  -2.4982  -2.4301
    -2.3028  -2.0705  -1.7744  -0.7770  -0.3974  -0.3864  -0.0966   0.3695
     0.4405   0.6385   0.9310   1.0438   1.0634   1.0695   1.2763   1.3512
     1.8997   2.2511   2.2833   2.3120   2.3197   2.4569   2.4648

 ------ SPIN DOWN ----------


          k = 0.0000 0.0000 0.0000 ( 26858 PWs)   bands (ev):

   -23.0236 -21.7190 -21.7051 -17.6628 -17.6365 -17.6272 -17.5163 -17.4822
   -17.4552 -16.9002 -16.8670 -16.8367 -16.7851 -16.5319 -16.1621 -16.1270
   -16.0976 -15.9539 -15.9266 -15.7612 -15.6027 -15.3404 -14.6765 -14.6389
   -14.6162 -14.2472 -14.2165 -14.0705 -13.7381 -13.2946 -12.9650 -12.8971
   -12.8717 -12.3964 -12.2983 -12.1063 -12.0774 -11.6121 -11.3541 -11.0585
   -11.0282 -10.7996 -10.4479 -10.1175 -10.0143  -9.9868  -9.6503  -9.6273
    -9.6199  -9.5866  -9.5829  -9.5307  -9.5053  -7.3845  -7.3291  -6.9997
    -6.8865  -6.7761  -6.7473  -6.6897  -6.6814  -6.3710  -6.2753  -6.2361
    -6.0389  -5.9875  -5.9822  -5.6493  -5.6116  -5.6085  -5.5200  -5.4882
    -5.4856  -5.3806  -5.3669  -5.1260  -5.0065  -4.9961  -4.8755  -4.6253
    -4.6070  -4.4644  -3.9408  -3.8421  -3.7415  -3.5944  -3.4994  -3.4122
    -3.3573  -3.2112  -3.1401  -3.0154  -3.0122  -2.9546  -2.4982  -2.4301
    -2.3028  -2.0705  -1.7744  -0.7770  -0.3974  -0.3864  -0.0966   0.3695
     0.4405   0.6385   0.9310   1.0438   1.0634   1.0695   1.2763   1.3512
     1.8997   2.2511   2.2833   2.3120   2.3197   2.4569   2.4648

     the spin up/dw Fermi energies are    -1.5084   -1.5084 ev

!    total energy              =    -923.06276700 Ry
     total all-electron energy =     -3804.586355 Ry
     estimated scf accuracy    <       0.00000063 Ry
     smearing contrib. (-TS)   =      -0.00000000 Ry
     internal energy E=F+TS    =    -923.06276700 Ry

     The total energy is F=E-TS. E is the sum of the following terms:
     one-electron contribution =   -1257.35592935 Ry
     hartree contribution      =     674.67933055 Ry
     xc contribution           =    -225.44594414 Ry
     ewald contribution        =     190.62785670 Ry
     one-center paw contrib.   =    -305.56808077 Ry

     total magnetization       =    -0.00 Bohr mag/cell
     absolute magnetization    =     0.00 Bohr mag/cell

     convergence has been achieved in  10 iterations

     negative rho (up, down):  1.496E-06 1.496E-06

     Forces acting on atoms (cartesian axes, Ry/au):

     atom    1 type  1   force =     0.01518540   -0.01692518    0.01980789
     atom    2 type  1   force =     0.01410814   -0.01436714    0.01445631
     atom    3 type  1   force =     0.03263496   -0.03290288    0.03288052
     atom    4 type  1   force =    -0.00936714    0.00813301    0.02107309
     atom    5 type  1   force =     0.03139100   -0.02011677   -0.16394241
     atom    6 type  1   force =    -0.03034251    0.03287389    0.02317651
     atom    7 type  1   force =     0.01581830    0.01764388   -0.01772715
     atom    8 type  1   force =     0.01437596    0.01474944   -0.01498203
     atom    9 type  1   force =     0.03338285    0.03321330   -0.03313367
     atom   10 type  1   force =    -0.01726395   -0.01614386   -0.01554084
     atom   11 type  1   force =    -0.01378522   -0.01373072   -0.01389531
     atom   12 type  1   force =    -0.03304406   -0.03330939   -0.03285422
     atom   13 type  1   force =    -0.02211030    0.02322864    0.02131379
     atom   14 type  1   force =    -0.01897772    0.01840862    0.01861873
     atom   15 type  1   force =     0.02305292   -0.02283246   -0.02319101
     atom   16 type  1   force =     0.02344200   -0.02269621    0.00714227
     atom   17 type  1   force =     0.02124309   -0.02212984    0.02215938
     atom   18 type  1   force =    -0.02358642    0.02402500   -0.02900167
     atom   19 type  1   force =     0.01960706    0.02003937   -0.02277712
     atom   20 type  1   force =     0.02231944    0.02277773   -0.02370887
     atom   21 type  1   force =    -0.02652397   -0.02853262    0.02695493
     atom   22 type  1   force =    -0.02171764   -0.01940768   -0.02274845
     atom   23 type  1   force =    -0.02227695   -0.02221748   -0.02302632
     atom   24 type  1   force =     0.02674877    0.02545256    0.02574018
     atom   25 type  1   force =     0.01255857   -0.00990451    0.04528250
     atom   26 type  1   force =     0.01149710   -0.01138114    0.00901450
     atom   27 type  1   force =     0.03352558   -0.03277580    0.03911601
     atom   28 type  1   force =    -0.01301122    0.01559560    0.01982078
     atom   29 type  1   force =    -0.01617966    0.01620014    0.01597350
     atom   30 type  1   force =    -0.03137747    0.03164998    0.03140575
     atom   31 type  1   force =     0.01752479    0.03896033   -0.00884826
     atom   32 type  1   force =     0.01096281    0.00901335   -0.01031336
     atom   33 type  1   force =     0.03639886    0.04001305   -0.03378975
     atom   34 type  1   force =    -0.03803159   -0.01830541   -0.01094006
     atom   35 type  1   force =    -0.00973868   -0.01146185   -0.01115628
     atom   36 type  1   force =    -0.03991925   -0.03661445   -0.03444887
     atom   37 type  1   force =    -0.04889183    0.04242323    0.02028150
     atom   38 type  1   force =    -0.06058374    0.05051375    0.19448262
     atom   39 type  1   force =     0.06292049   -0.05666830   -0.12711840
     atom   40 type  1   force =     0.02780979   -0.02856230    0.02078938
     atom   41 type  1   force =     0.02128117   -0.02058578    0.02062346
     atom   42 type  1   force =    -0.02232267    0.02254297   -0.02465886
     atom   43 type  1   force =     0.02449542    0.02066726   -0.02579938
     atom   44 type  1   force =     0.02112786    0.02077282   -0.02018686
     atom   45 type  1   force =    -0.02366932   -0.02407956    0.02490418
     atom   46 type  1   force =    -0.02105372   -0.02464685   -0.02399655
     atom   47 type  1   force =    -0.01989543   -0.01978966   -0.02007665
     atom   48 type  1   force =     0.02423394    0.02383868    0.02525212
     atom   49 type  2   force =    -0.01397580    0.00735123    0.08759246

     Total force =     0.426733     Total SCF correction =     0.000945
     Energy error            =      9.2E-02 Ry
     Gradient error          =      1.9E-01 Ry/Bohr

     number of scf cycles    =   3
     number of bfgs steps    =   1

     energy             old  =    -922.9711944874 Ry
     energy             new  =    -923.0627670045 Ry

     CASE: energy            _new < energy            _old

     new trust radius        =       0.1874397698 bohr
     new conv_thr            =       0.0000010000 Ry


ATOMIC_POSITIONS (angstrom)
C             6.1823935412        4.5915368740        6.1881575052
C             7.7121129858        3.0576095564        7.7123928977
C             7.0074218806        3.7653690739        7.0075585822
C             4.5879979402        6.1874910062        6.2040966354
C             3.0761377631        7.7046211334        7.5654193204
C             3.7833632028        6.9920579457        6.9841120169
C             6.1843700585        6.1855642741        4.5905272115
C             7.7122428256        7.7125922967        3.0572111991
C             7.0081925516        7.0080599310        3.7648995499
C             4.5868361524        4.5873218483        4.5880461397
C             3.0569402601        3.0569605490        3.0568974448
C             3.7624952227        3.7622552217        3.7624875278
C             6.1905699639        4.5813886087        4.5791483279
C             7.7764596897        3.0001026959        3.0003317741
C             7.0627554929        3.7114177370        3.7121589381
C             4.5801251766        6.1915502289        4.5622837359
C             2.9993304494        7.7779714057        3.0001071784
C             3.7146262936        7.0597277816        3.7110375533
C             4.5769345690        4.5751335335        6.1916205981
C             2.9993409905        2.9998489589        7.7765488087
C             3.7122596464        3.7104411806        7.0621486453
C             6.1971412311        6.1984630955        6.1949052050
C             7.7765189803        7.7776383552        7.7769793518
C             7.0648085177        7.0646041415        7.0638949764
C             0.6823768652       10.0915756516        0.7134178179
C             2.2167322565        8.5603861484        2.2146374471
C             1.5060459625        9.2685379405        1.5108388608
C            10.0899095275        0.6818940696        0.6873458998
C             8.5605433269        2.2154616446        2.2162384296
C             9.2643023242        1.5089021351        1.5096165708
C             0.6884257347        0.7030970179       10.0922600666
C             2.2159827542        2.2144500521        8.5606099332
C             1.5085484107        1.5102678885        9.2673270187
C            10.0729225053       10.0865431907       10.0935291211
C             8.5624540396        8.5611761743        8.5614612075
C             9.2656719323        9.2680117344        9.2685930247
C             0.6967481613       10.0720497344       10.0490352424
C             2.3157561109        8.4455814146        8.5384618724
C             1.4922762873        9.2845758886        9.2200768121
C            10.0839525427        0.6884311318       10.0784509488
C             8.4962246188        2.2714058920        8.4957106711
C             9.2101413911        1.5590421277        9.2080058885
C            10.0814542964       10.0799075286        0.6924636205
C             8.4961215088        8.4967924411        2.2716981841
C             9.2100713398        9.2097224227        1.5619207239
C             0.6923763836        0.6892574488        0.6900487938
C             2.2727406046        2.2718661816        2.2725866649
C             1.5608664781        1.5595008715        1.5606161132
O             2.8679792511        7.7638358355        9.5700779428



     Writing config-only to output data dir ./pwscf.save/
     NEW-OLD atomic charge density approx. for the potential

     Check: negative core charge=   -0.000004

     negative rho (up, down):  1.546E-06 1.546E-06
     Generating pointlists ...
     new r_m :   0.0435 (alat units)  0.9043 (a.u.) for type    1

     total cpu time spent up to now is       93.8 secs

     Self-consistent Calculation

     iteration #  1     ecut=    50.00 Ry     beta= 0.30
     Davidson diagonalization with overlap
     ethr =  1.00E-06,  avg # of iterations = 12.0

     negative rho (up, down):  1.789E-06 1.789E-06

     total cpu time spent up to now is       99.0 secs

     total energy              =    -923.09180991 Ry
     estimated scf accuracy    <       0.14007399 Ry

     total magnetization       =    -0.00 Bohr mag/cell
     absolute magnetization    =     0.00 Bohr mag/cell

     iteration #  2     ecut=    50.00 Ry     beta= 0.30
     Davidson diagonalization with overlap
     ethr =  7.07E-05,  avg # of iterations =  2.0

     negative rho (up, down):  2.034E-06 2.034E-06

     total cpu time spent up to now is      101.1 secs

     total energy              =    -923.10869670 Ry
     estimated scf accuracy    <       0.09694933 Ry

     total magnetization       =     0.00 Bohr mag/cell
     absolute magnetization    =     0.00 Bohr mag/cell

     iteration #  3     ecut=    50.00 Ry     beta= 0.30
     Davidson diagonalization with overlap
     ethr =  4.90E-05,  avg # of iterations =  2.0

     negative rho (up, down):  2.188E-06 2.188E-06

     total cpu time spent up to now is      103.0 secs

     total energy              =    -923.11918132 Ry
     estimated scf accuracy    <       0.02120484 Ry

     total magnetization       =     0.00 Bohr mag/cell
     absolute magnetization    =     0.00 Bohr mag/cell

     iteration #  4     ecut=    50.00 Ry     beta= 0.30
     Davidson diagonalization with overlap
     ethr =  1.07E-05,  avg # of iterations =  2.0

     negative rho (up, down):  2.040E-06 2.040E-06

     total cpu time spent up to now is      105.0 secs

     total energy              =    -923.12045304 Ry
     estimated scf accuracy    <       0.00426409 Ry

     total magnetization       =    -0.00 Bohr mag/cell
     absolute magnetization    =     0.00 Bohr mag/cell

     iteration #  5     ecut=    50.00 Ry     beta= 0.30
     Davidson diagonalization with overlap
     ethr =  2.15E-06,  avg # of iterations =  2.0

     negative rho (up, down):  2.050E-06 2.050E-06

     total cpu time spent up to now is      107.1 secs

     total energy              =    -923.12054827 Ry
     estimated scf accuracy    <       0.00238350 Ry

     total magnetization       =     0.00 Bohr mag/cell
     absolute magnetization    =     0.00 Bohr mag/cell

     iteration #  6     ecut=    50.00 Ry     beta= 0.30
     Davidson diagonalization with overlap
     ethr =  1.20E-06,  avg # of iterations =  1.0

     negative rho (up, down):  2.084E-06 2.084E-06

     total cpu time spent up to now is      109.0 secs

     total energy              =    -923.12069598 Ry
     estimated scf accuracy    <       0.00034725 Ry

     total magnetization       =    -0.00 Bohr mag/cell
     absolute magnetization    =     0.00 Bohr mag/cell

     iteration #  7     ecut=    50.00 Ry     beta= 0.30
     Davidson diagonalization with overlap
     ethr =  1.75E-07,  avg # of iterations =  2.0

     negative rho (up, down):  2.075E-06 2.075E-06

     total cpu time spent up to now is      111.1 secs

     total energy              =    -923.12073401 Ry
     estimated scf accuracy    <       0.00004180 Ry

     total magnetization       =     0.00 Bohr mag/cell
     absolute magnetization    =     0.00 Bohr mag/cell

     iteration #  8     ecut=    50.00 Ry     beta= 0.30
     Davidson diagonalization with overlap
     ethr =  2.11E-08,  avg # of iterations =  2.0

     negative rho (up, down):  2.054E-06 2.054E-06

     total cpu time spent up to now is      113.3 secs

     total energy              =    -923.12073862 Ry
     estimated scf accuracy    <       0.00000826 Ry

     total magnetization       =     0.00 Bohr mag/cell
     absolute magnetization    =     0.00 Bohr mag/cell

     iteration #  9     ecut=    50.00 Ry     beta= 0.30
     Davidson diagonalization with overlap
     ethr =  4.17E-09,  avg # of iterations =  3.0

     negative rho (up, down):  2.040E-06 2.040E-06

     total cpu time spent up to now is      115.5 secs

     total energy              =    -923.12073997 Ry
     estimated scf accuracy    <       0.00000165 Ry

     total magnetization       =    -0.00 Bohr mag/cell
     absolute magnetization    =     0.00 Bohr mag/cell

     iteration # 10     ecut=    50.00 Ry     beta= 0.30
     Davidson diagonalization with overlap
     ethr =  8.34E-10,  avg # of iterations =  2.0

     negative rho (up, down):  2.029E-06 2.029E-06

     Magnetic moment per site  (integrated on atomic sphere of radius R)
     atom   1 (R=0.044)  charge=  0.9681  magn= -0.0000
     atom   2 (R=0.044)  charge=  1.0351  magn= -0.0000
     atom   3 (R=0.044)  charge=  1.0262  magn=  0.0000
     atom   4 (R=0.044)  charge=  0.9762  magn=  0.0000
     atom   5 (R=0.044)  charge=  1.0567  magn=  0.0000
     atom   6 (R=0.044)  charge=  1.0830  magn= -0.0000
     atom   7 (R=0.044)  charge=  0.9687  magn=  0.0000
     atom   8 (R=0.044)  charge=  1.0356  magn= -0.0000
     atom   9 (R=0.044)  charge=  1.0263  magn=  0.0000
     atom  10 (R=0.044)  charge=  0.9700  magn=  0.0000
     atom  11 (R=0.044)  charge=  1.0358  magn=  0.0000
     atom  12 (R=0.044)  charge=  1.0254  magn= -0.0000
     atom  13 (R=0.044)  charge=  0.9518  magn= -0.0000
     atom  14 (R=0.044)  charge=  1.0267  magn= -0.0000
     atom  15 (R=0.044)  charge=  1.0025  magn=  0.0000
     atom  16 (R=0.044)  charge=  0.9515  magn= -0.0000
     atom  17 (R=0.044)  charge=  1.0248  magn= -0.0000
     atom  18 (R=0.044)  charge=  1.0019  magn=  0.0000
     atom  19 (R=0.044)  charge=  0.9524  magn=  0.0000
     atom  20 (R=0.044)  charge=  1.0265  magn=  0.0000
     atom  21 (R=0.044)  charge=  1.0031  magn= -0.0000
     atom  22 (R=0.044)  charge=  0.9520  magn= -0.0000
     atom  23 (R=0.044)  charge=  1.0271  magn=  0.0000
     atom  24 (R=0.044)  charge=  1.0023  magn= -0.0000
     atom  25 (R=0.044)  charge=  0.9650  magn=  0.0000
     atom  26 (R=0.044)  charge=  1.0305  magn=  0.0000
     atom  27 (R=0.044)  charge=  1.0298  magn= -0.0000
     atom  28 (R=0.044)  charge=  0.9701  magn=  0.0000
     atom  29 (R=0.044)  charge=  1.0334  magn=  0.0000
     atom  30 (R=0.044)  charge=  1.0274  magn= -0.0000
     atom  31 (R=0.044)  charge=  0.9712  magn=  0.0000
     atom  32 (R=0.044)  charge=  1.0329  magn=  0.0000
     atom  33 (R=0.044)  charge=  1.0298  magn= -0.0000
     atom  34 (R=0.044)  charge=  0.9727  magn= -0.0000
     atom  35 (R=0.044)  charge=  1.0331  magn= -0.0000
     atom  36 (R=0.044)  charge=  1.0294  magn=  0.0000
     atom  37 (R=0.044)  charge=  0.9657  magn= -0.0000
     atom  38 (R=0.044)  charge=  0.9783  magn= -0.0000
     atom  39 (R=0.044)  charge=  0.9792  magn=  0.0000
     atom  40 (R=0.044)  charge=  0.9519  magn=  0.0000
     atom  41 (R=0.044)  charge=  1.0252  magn=  0.0000
     atom  42 (R=0.044)  charge=  0.9997  magn= -0.0000
     atom  43 (R=0.044)  charge=  0.9539  magn=  0.0000
     atom  44 (R=0.044)  charge=  1.0257  magn=  0.0000
     atom  45 (R=0.044)  charge=  1.0011  magn= -0.0000
     atom  46 (R=0.044)  charge=  0.9549  magn= -0.0000
     atom  47 (R=0.044)  charge=  1.0262  magn= -0.0000
     atom  48 (R=0.044)  charge=  1.0013  magn=  0.0000
     atom  49 (R=0.051)  charge=  3.4868  magn= -0.0000

     total cpu time spent up to now is      117.6 secs

     End of self-consistent calculation

 ------ SPIN UP ------------


          k = 0.0000 0.0000 0.0000 ( 26858 PWs)   bands (ev):

   -22.3451 -21.8140 -21.8014 -17.6214 -17.5906 -17.5544 -17.4661 -17.3988
   -17.3799 -16.9730 -16.9403 -16.9283 -16.9031 -16.6580 -16.2551 -16.2309
   -16.1360 -15.8685 -15.8424 -15.7562 -15.6111 -15.3553 -14.7594 -14.7431
   -14.6704 -14.0866 -14.0582 -13.8988 -13.6074 -13.1286 -12.8990 -12.7889
   -12.7795 -12.2198 -12.2156 -12.1874 -12.1740 -11.3716 -11.2953 -11.1668
   -11.1499 -10.8364 -10.3857  -9.9663  -9.8995  -9.8587  -9.6430  -9.6199
    -9.5936  -9.5833  -9.5201  -9.4531  -9.4202  -7.1867  -7.1546  -6.9906
    -6.8158  -6.6468  -6.6332  -6.6046  -6.5980  -6.3544  -6.2695  -6.2178
    -5.9917  -5.9824  -5.9424  -5.7382  -5.7046  -5.7033  -5.6335  -5.6030
    -5.5985  -5.5302  -5.5174  -5.1523  -5.1309  -5.0000  -4.8622  -4.7384
    -4.6619  -4.6260  -4.0546  -3.8075  -3.6914  -3.6196  -3.4631  -3.3815
    -3.3573  -3.2383  -3.2062  -3.1025  -3.1007  -3.0340  -2.7479  -2.4767
    -2.4388  -2.2279  -1.7967  -0.8603  -0.2667  -0.1889   0.0311   0.6249
     0.6431   0.7899   1.1154   1.1305   1.1817   1.1947   1.2932   1.3970
     1.8669   2.2312   2.2547   2.3206   2.4194   2.4355   2.4634

 ------ SPIN DOWN ----------


          k = 0.0000 0.0000 0.0000 ( 26858 PWs)   bands (ev):

   -22.3451 -21.8140 -21.8014 -17.6214 -17.5906 -17.5544 -17.4661 -17.3988
   -17.3799 -16.9730 -16.9403 -16.9283 -16.9031 -16.6580 -16.2551 -16.2309
   -16.1360 -15.8685 -15.8424 -15.7562 -15.6111 -15.3553 -14.7594 -14.7431
   -14.6704 -14.0866 -14.0582 -13.8988 -13.6074 -13.1286 -12.8990 -12.7889
   -12.7795 -12.2198 -12.2156 -12.1874 -12.1740 -11.3716 -11.2953 -11.1668
   -11.1499 -10.8364 -10.3857  -9.9663  -9.8995  -9.8587  -9.6430  -9.6199
    -9.5936  -9.5833  -9.5201  -9.4531  -9.4202  -7.1867  -7.1546  -6.9906
    -6.8158  -6.6468  -6.6332  -6.6046  -6.5980  -6.3544  -6.2695  -6.2178
    -5.9917  -5.9824  -5.9424  -5.7382  -5.7046  -5.7033  -5.6335  -5.6030
    -5.5985  -5.5302  -5.5174  -5.1523  -5.1309  -5.0000  -4.8622  -4.7384
    -4.6619  -4.6260  -4.0546  -3.8075  -3.6914  -3.6196  -3.4631  -3.3815
    -3.3573  -3.2383  -3.2062  -3.1025  -3.1007  -3.0340  -2.7479  -2.4767
    -2.4388  -2.2279  -1.7967  -0.8603  -0.2667  -0.1889   0.0311   0.6249
     0.6431   0.7899   1.1154   1.1305   1.1817   1.1947   1.2932   1.3970
     1.8669   2.2312   2.2547   2.3206   2.4194   2.4355   2.4634

     the spin up/dw Fermi energies are    -1.4035   -1.4035 ev

!    total energy              =    -923.12074023 Ry
     total all-electron energy =     -3804.644328 Ry
     estimated scf accuracy    <       0.00000031 Ry
     smearing contrib. (-TS)   =      -0.00000000 Ry
     internal energy E=F+TS    =    -923.12074023 Ry

     The total energy is F=E-TS. E is the sum of the following terms:
     one-electron contribution =   -1249.84973920 Ry
     hartree contribution      =     671.15547213 Ry
     xc contribution           =    -225.73120785 Ry
     ewald contribution        =     186.90086800 Ry
     one-center paw contrib.   =    -305.59613331 Ry

     total magnetization       =     0.00 Bohr mag/cell
     absolute magnetization    =     0.00 Bohr mag/cell

     convergence has been achieved in  10 iterations

     negative rho (up, down):  2.029E-06 2.029E-06

     Forces acting on atoms (cartesian axes, Ry/au):

     atom    1 type  1   force =     0.01165565   -0.01155758    0.01010149
     atom    2 type  1   force =     0.00815939   -0.00829933    0.00841094
     atom    3 type  1   force =    -0.01271591    0.01257805   -0.01237994
     atom    4 type  1   force =     0.02540361   -0.02654074   -0.03040718
     atom    5 type  1   force =    -0.21622867    0.22627387    0.08487437
     atom    6 type  1   force =     0.13669598   -0.13630508   -0.12300458
     atom    7 type  1   force =     0.01088493    0.01261076   -0.01157650
     atom    8 type  1   force =     0.00837419    0.00866850   -0.00879494
     atom    9 type  1   force =    -0.01242408   -0.01322204    0.01321298
     atom   10 type  1   force =    -0.01275366   -0.01111510   -0.01155274
     atom   11 type  1   force =    -0.00821686   -0.00811170   -0.00833061
     atom   12 type  1   force =     0.01430923    0.01335742    0.01432115
     atom   13 type  1   force =     0.03514886   -0.03404567   -0.03203213
     atom   14 type  1   force =    -0.01978791    0.01942183    0.01941633
     atom   15 type  1   force =    -0.03640399    0.03640201    0.03570916
     atom   16 type  1   force =    -0.03119778    0.03187846   -0.02380356
     atom   17 type  1   force =     0.01972276   -0.02029380    0.01928421
     atom   18 type  1   force =     0.03240744   -0.03240990    0.02681141
     atom   19 type  1   force =    -0.03250456   -0.02770526    0.03456999
     atom   20 type  1   force =     0.01648860    0.01619616   -0.01747972
     atom   21 type  1   force =     0.03583670    0.03414720   -0.03664789
     atom   22 type  1   force =     0.02803278    0.03136930    0.03301189
[...]
C             1.5492628969        1.5668127592        1.4309446046
O             2.8471846576        7.7487848202       10.0517759497



     Writing config-only to output data dir ./pwscf.save/
     NEW-OLD atomic charge density approx. for the potential

     Check: negative core charge=   -0.000004

     negative rho (up, down):  1.650E-06 1.401E-06
     Generating pointlists ...

     total cpu time spent up to now is     2080.1 secs

     Self-consistent Calculation

     iteration #  1     ecut=    50.00 Ry     beta= 0.30
     Davidson diagonalization with overlap
     ethr =  1.00E-06,  avg # of iterations =  3.0

     Threshold (ethr) on eigenvalues was too large:
     Diagonalizing with lowered threshold

     Davidson diagonalization with overlap
     ethr =  9.67E-09,  avg # of iterations =  4.0

     negative rho (up, down):  1.620E-06 1.387E-06

     total cpu time spent up to now is     2084.5 secs

     total energy              =    -923.32941680 Ry
     estimated scf accuracy    <       0.00002628 Ry

     total magnetization       =     0.00 Bohr mag/cell
     absolute magnetization    =     2.39 Bohr mag/cell

     iteration #  2     ecut=    50.00 Ry     beta= 0.30
     Davidson diagonalization with overlap
     ethr =  1.33E-08,  avg # of iterations =  1.0

     negative rho (up, down):  1.545E-06 1.375E-06

     total cpu time spent up to now is     2086.4 secs

     total energy              =    -923.32941585 Ry
     estimated scf accuracy    <       0.00000861 Ry

     total magnetization       =    -0.00 Bohr mag/cell
     absolute magnetization    =     2.39 Bohr mag/cell

     iteration #  3     ecut=    50.00 Ry     beta= 0.30
     Davidson diagonalization with overlap
     ethr =  4.35E-09,  avg # of iterations =  2.0

     negative rho (up, down):  1.499E-06 1.372E-06

     total cpu time spent up to now is     2088.4 secs

     total energy              =    -923.32941623 Ry
     estimated scf accuracy    <       0.00000238 Ry

     total magnetization       =    -0.00 Bohr mag/cell
     absolute magnetization    =     2.39 Bohr mag/cell

     iteration #  4     ecut=    50.00 Ry     beta= 0.30
     Davidson diagonalization with overlap
     ethr =  1.20E-09,  avg # of iterations =  2.0

     negative rho (up, down):  1.480E-06 1.370E-06

     total cpu time spent up to now is     2090.4 secs

     total energy              =    -923.32941650 Ry
     estimated scf accuracy    <       0.00000068 Ry

     total magnetization       =     0.00 Bohr mag/cell
     absolute magnetization    =     2.39 Bohr mag/cell

     iteration #  5     ecut=    50.00 Ry     beta= 0.30
     Davidson diagonalization with overlap
     ethr =  3.42E-10,  avg # of iterations =  1.5

     negative rho (up, down):  1.470E-06 1.370E-06

     total cpu time spent up to now is     2092.4 secs

     total energy              =    -923.32941657 Ry
     estimated scf accuracy    <       0.00000031 Ry

     total magnetization       =    -0.00 Bohr mag/cell
     absolute magnetization    =     2.39 Bohr mag/cell

     iteration #  6     ecut=    50.00 Ry     beta= 0.30
     Davidson diagonalization with overlap
     ethr =  1.54E-10,  avg # of iterations =  1.0

     negative rho (up, down):  1.463E-06 1.371E-06

     total cpu time spent up to now is     2094.3 secs

     total energy              =    -923.32941661 Ry
     estimated scf accuracy    <       0.00000004 Ry

     total magnetization       =     0.00 Bohr mag/cell
     absolute magnetization    =     2.39 Bohr mag/cell

     iteration #  7     ecut=    50.00 Ry     beta= 0.30
     Davidson diagonalization with overlap
     ethr =  2.08E-11,  avg # of iterations =  2.0

     negative rho (up, down):  1.458E-06 1.371E-06

     Magnetic moment per site  (integrated on atomic sphere of radius R)
     atom   1 (R=0.044)  charge=  0.9618  magn= -0.0000
     atom   2 (R=0.044)  charge=  1.0228  magn=  0.0009
     atom   3 (R=0.044)  charge=  1.0171  magn= -0.0014
     atom   4 (R=0.044)  charge=  0.9616  magn= -0.0111
     atom   5 (R=0.044)  charge=  1.0133  magn= -0.0015
     atom   6 (R=0.044)  charge=  1.0200  magn=  0.0032
     atom   7 (R=0.044)  charge=  0.9588  magn= -0.0038
     atom   8 (R=0.044)  charge=  1.0206  magn= -0.0013
     atom   9 (R=0.044)  charge=  1.0152  magn=  0.0017
     atom  10 (R=0.044)  charge=  0.9589  magn= -0.0036
     atom  11 (R=0.044)  charge=  1.0221  magn= -0.0013
     atom  12 (R=0.044)  charge=  1.0156  magn=  0.0019
     atom  13 (R=0.044)  charge=  0.9600  magn=  0.0002
     atom  14 (R=0.044)  charge=  1.0219  magn= -0.0007
     atom  15 (R=0.044)  charge=  1.0166  magn=  0.0010
     atom  16 (R=0.044)  charge=  0.9655  magn=  0.0055
     atom  17 (R=0.044)  charge=  1.0263  magn=  0.0200
     atom  18 (R=0.044)  charge=  1.0177  magn= -0.0555
     atom  19 (R=0.044)  charge=  0.9595  magn=  0.0016
     atom  20 (R=0.044)  charge=  1.0227  magn=  0.0003
     atom  21 (R=0.044)  charge=  1.0162  magn=  0.0002
     atom  22 (R=0.044)  charge=  0.9596  magn=  0.0016
     atom  23 (R=0.044)  charge=  1.0225  magn=  0.0003
     atom  24 (R=0.044)  charge=  1.0162  magn=  0.0006
     atom  25 (R=0.044)  charge=  0.9901  magn= -0.0904
     atom  26 (R=0.044)  charge=  1.0233  magn= -0.0744
     atom  27 (R=0.044)  charge=  1.0212  magn=  0.0257
     atom  28 (R=0.044)  charge=  0.9616  magn= -0.0064
     atom  29 (R=0.044)  charge=  1.0216  magn=  0.0011
     atom  30 (R=0.044)  charge=  1.0160  magn= -0.0006
     atom  31 (R=0.044)  charge=  0.9520  magn=  0.0071
     atom  32 (R=0.044)  charge=  1.0218  magn= -0.0000
     atom  33 (R=0.044)  charge=  1.0170  magn= -0.0004
     atom  34 (R=0.044)  charge=  0.9532  magn=  0.0082
     atom  35 (R=0.044)  charge=  1.0218  magn=  0.0005
     atom  36 (R=0.044)  charge=  1.0150  magn= -0.0005
     atom  37 (R=0.044)  charge=  0.9912  magn= -0.0167
     atom  38 (R=0.044)  charge=  0.9803  magn= -0.0081
     atom  39 (R=0.044)  charge=  0.9953  magn=  0.1275
     atom  40 (R=0.044)  charge=  0.9643  magn= -0.0019
     atom  41 (R=0.044)  charge=  1.0239  magn= -0.0022
     atom  42 (R=0.044)  charge=  1.0173  magn=  0.0013
     atom  43 (R=0.044)  charge=  0.9571  magn=  0.0069
     atom  44 (R=0.044)  charge=  1.0236  magn=  0.0016
     atom  45 (R=0.044)  charge=  1.0136  magn= -0.0024
     atom  46 (R=0.044)  charge=  0.9553  magn=  0.0075
     atom  47 (R=0.044)  charge=  1.0213  magn=  0.0019
     atom  48 (R=0.044)  charge=  1.0131  magn= -0.0024
     atom  49 (R=0.047)  charge=  3.1281  magn=  0.1229

     total cpu time spent up to now is     2096.4 secs

     End of self-consistent calculation

 ------ SPIN UP ------------


          k = 0.0000 0.0000 0.0000 ( 26858 PWs)   bands (ev):

   -22.8273 -21.5924 -20.9135 -18.1569 -17.5497 -17.5324 -17.5108 -17.1846
   -17.1024 -16.9833 -16.9772 -16.8934 -16.8675 -16.6482 -16.2369 -16.0400
   -16.0025 -15.9930 -15.8989 -15.8149 -15.6200 -15.5271 -14.8038 -14.5322
   -14.4265 -14.2936 -14.2670 -13.9890 -13.5650 -13.2416 -12.9819 -12.9083
   -12.7023 -12.3216 -12.1346 -12.0098 -11.9388 -11.5428 -11.1706 -11.1289
   -10.9238 -10.7326 -10.3912 -10.3332 -10.0951  -9.7861  -9.6506  -9.5635
    -9.5445  -9.5332  -9.3670  -8.5562  -8.4436  -7.6008  -7.5583  -7.1871
    -6.8926  -6.8547  -6.8251  -6.7198  -6.6072  -6.5375  -6.3897  -6.1937
    -6.1279  -6.1105  -5.7465  -5.6992  -5.6982  -5.6117  -5.6004  -5.5871
    -5.4904  -5.4449  -5.3839  -5.2179  -5.1336  -4.8149  -4.7151  -4.6017
    -4.3306  -4.1829  -4.0393  -3.8760  -3.7279  -3.6967  -3.5476  -3.4998
    -3.3991  -3.3542  -3.2378  -3.1644  -3.0631  -3.0436  -2.7863  -2.7527
    -2.5553  -2.1875  -2.0326  -1.1882  -0.2093  -0.1737   0.1431   0.4700
     0.5160   0.7188   0.9138   1.0834   1.1296   1.1623   1.3775   1.4531
     1.5147   1.7708   2.2198   2.2485   2.3081   2.4483   2.6175

 ------ SPIN DOWN ----------


          k = 0.0000 0.0000 0.0000 ( 26858 PWs)   bands (ev):

   -22.6019 -21.6031 -20.9505 -18.1996 -17.5937 -17.5333 -17.5185 -17.1839
   -17.1222 -17.0473 -16.9757 -16.9047 -16.8651 -16.5855 -16.2667 -16.0518
   -16.0025 -15.9899 -15.8732 -15.7935 -15.6369 -15.4475 -14.8045 -14.5285
   -14.4306 -14.2916 -14.2823 -13.9888 -13.5727 -13.2460 -12.9765 -12.9357
   -12.7053 -12.3361 -12.1435 -12.0122 -11.9340 -11.5491 -11.1687 -11.1658
   -10.9085 -10.7347 -10.3976 -10.3370 -10.0951  -9.7892  -9.6734  -9.5719
    -9.5488  -9.5451  -9.3561  -8.6387  -8.4106  -7.4549  -7.4448  -7.1306
    -6.9401  -6.8556  -6.7128  -6.6299  -6.6248  -6.5550  -6.3637  -6.2541
    -6.1278  -6.1241  -5.8399  -5.7077  -5.6994  -5.6607  -5.6278  -5.5915
    -5.5795  -5.4289  -5.4116  -5.2204  -5.1465  -4.8273  -4.6918  -4.6118
    -4.3783  -4.1885  -3.9562  -3.8836  -3.7281  -3.6660  -3.5833  -3.5039
    -3.3931  -3.3741  -3.1806  -3.1771  -3.0697  -3.0473  -2.6972  -2.5987
    -2.4123  -2.1959  -1.7503  -1.3944  -0.1923  -0.1785   0.0439   0.4969
     0.5299   0.7117   1.0177   1.0902   1.1166   1.1510   1.3179   1.5088
     1.5536   1.7645   2.2167   2.2785   2.3429   2.4506   2.6246

     the spin up/dw Fermi energies are    -1.3429   -1.7410 ev

!    total energy              =    -923.32941662 Ry
     total all-electron energy =     -3804.853005 Ry
     estimated scf accuracy    <          6.4E-09 Ry
     smearing contrib. (-TS)   =      -0.00000000 Ry
     internal energy E=F+TS    =    -923.32941662 Ry

     The total energy is F=E-TS. E is the sum of the following terms:
     one-electron contribution =   -1223.97941113 Ry
     hartree contribution      =     658.15601423 Ry
     xc contribution           =    -225.47831111 Ry
     ewald contribution        =     173.55096193 Ry
     one-center paw contrib.   =    -305.57867054 Ry

     total magnetization       =     0.00 Bohr mag/cell
     absolute magnetization    =     2.39 Bohr mag/cell

     convergence has been achieved in   7 iterations

     negative rho (up, down):  1.458E-06 1.371E-06

     Forces acting on atoms (cartesian axes, Ry/au):

     atom    1 type  1   force =     0.00037871   -0.00031971   -0.00002601
     atom    2 type  1   force =     0.00074941   -0.00076140    0.00017985
     atom    3 type  1   force =    -0.00020445   -0.00001920   -0.00031351
     atom    4 type  1   force =     0.00032213   -0.00003199    0.00050717
     atom    5 type  1   force =     0.00049485   -0.00062042    0.00027205
     atom    6 type  1   force =     0.00000298    0.00059826    0.00030181
     atom    7 type  1   force =    -0.00024467    0.00000407    0.00019907
     atom    8 type  1   force =    -0.00045814   -0.00009800    0.00004142
     atom    9 type  1   force =    -0.00011994    0.00030604    0.00003740
     atom   10 type  1   force =    -0.00034473    0.00006457   -0.00026602
     atom   11 type  1   force =    -0.00052546   -0.00008838   -0.00041315
     atom   12 type  1   force =     0.00002930   -0.00006275   -0.00000398
     atom   13 type  1   force =    -0.00030701    0.00011784   -0.00045322
     atom   14 type  1   force =    -0.00036778    0.00024122   -0.00056922
     atom   15 type  1   force =    -0.00020365    0.00001955   -0.00003849
     atom   16 type  1   force =    -0.00018356    0.00013199    0.00006589
     atom   17 type  1   force =    -0.00009868   -0.00009604    0.00033655
     atom   18 type  1   force =     0.00020305   -0.00001691   -0.00094879
     atom   19 type  1   force =     0.00037020   -0.00003652   -0.00013793
     atom   20 type  1   force =     0.00004527   -0.00005488   -0.00050122
     atom   21 type  1   force =     0.00019919    0.00010690   -0.00054862
     atom   22 type  1   force =     0.00035439   -0.00008524    0.00011535
     atom   23 type  1   force =     0.00029699    0.00016378   -0.00012564
     atom   24 type  1   force =     0.00059791    0.00070241   -0.00012170
     atom   25 type  1   force =    -0.00000846    0.00030955    0.00047588
     atom   26 type  1   force =    -0.00019304    0.00004202    0.00025061
     atom   27 type  1   force =    -0.00045625   -0.00002072   -0.00030288
     atom   28 type  1   force =    -0.00013716    0.00016937   -0.00001707
     atom   29 type  1   force =    -0.00005554    0.00016341   -0.00057646
     atom   30 type  1   force =    -0.00031128    0.00044253   -0.00001934
     atom   31 type  1   force =     0.00056090   -0.00050627    0.00042687
     atom   32 type  1   force =    -0.00028375   -0.00007697    0.00010878
     atom   33 type  1   force =     0.00049333    0.00005133   -0.00025042
     atom   34 type  1   force =    -0.00026025   -0.00015474    0.00097298
     atom   35 type  1   force =     0.00000475    0.00022855    0.00018052
     atom   36 type  1   force =     0.00091525   -0.00027967   -0.00026314
     atom   37 type  1   force =    -0.00043695   -0.00026494    0.00081759
     atom   38 type  1   force =    -0.00030501    0.00048094    0.00046125
     atom   39 type  1   force =     0.00047075   -0.00033205    0.00009822
     atom   40 type  1   force =    -0.00006089   -0.00041928    0.00012150
     atom   41 type  1   force =     0.00053839   -0.00041531    0.00022230
     atom   42 type  1   force =     0.00027498   -0.00024412   -0.00040522
     atom   43 type  1   force =    -0.00037997    0.00023636    0.00009195
     atom   44 type  1   force =    -0.00073036   -0.00013060    0.00076510
     atom   45 type  1   force =     0.00050318    0.00025788   -0.00061792
     atom   46 type  1   force =     0.00034934    0.00012633   -0.00062888
     atom   47 type  1   force =    -0.00058864    0.00022690   -0.00051410
     atom   48 type  1   force =    -0.00041871    0.00006048    0.00066438
     atom   49 type  2   force =    -0.00047091   -0.00011617    0.00034848

     Total force =     0.004450     Total SCF correction =     0.000125
     Energy error            =      2.8E-05 Ry
     Gradient error          =      9.7E-04 Ry/Bohr

     bfgs converged in  68 scf cycles and  64 bfgs steps
     (criteria: energy <  1.0E-04 Ry, force <  1.0E-03 Ry/Bohr)

     End of BFGS Geometry Optimization

     Final energy             =    -923.3294166161 Ry

     File ./pwscf.bfgs deleted, as requested
Begin final coordinates

ATOMIC_POSITIONS (angstrom)
C             6.2031141756        4.5721082136        6.1660046378
C             7.7440252211        3.0286917646        7.7035044204
C             7.0328646250        3.7433834733        6.9946213634
C             4.5870994427        6.1862039439        6.1634211632
C             3.0683630855        7.6897941761        7.7492981984
C             3.7600949651        7.0083676016        6.9931009968
C             6.2153329419        6.1898536756        4.5388183603
C             7.7255433579        7.7211450319        2.9536075177
C             7.0346482448        7.0104122845        3.6904986678
C             4.5877568200        4.5620303129        4.5386457345
C             3.0560338520        3.0540609039        2.9530108744
C             3.7669591646        3.7448525228        3.6895427470
C             6.2096066625        4.5684427998        4.5459767072
C             7.7518420677        3.0227328972        3.0058395346
C             7.0417177849        3.7355897296        3.7199915401
C             4.5947631741        6.1825477052        4.5405685121
C             3.0010145228        7.7808376887        3.1351384884
C             3.7582973332        7.0204413195        3.7598228370
C             4.5870153222        4.5617392103        6.1689704411
C             3.0476523344        3.0664754038        7.7559601828
C             3.7648931441        3.7488221548        7.0174489987
C             6.2112334083        6.1876147330        6.1698148177
C             7.7082650257        7.7225921022        7.7585671852
C             7.0228421213        7.0068623618        7.0213292142
C             0.5649102941       10.2167704504        1.1876933061
C             2.1759677143        8.6083359197        2.4720941684
C             1.4055021797        9.3808651321        1.8524579695
C            10.0616207957        0.7093678032        0.6234733805
C             8.5374989759        2.2328222273        2.2040158360
C             9.2403259259        1.5274121838        1.4757192126
C             0.6958617771        0.6481795210        9.9763902352
C             2.2503428989        2.2897409310        8.5542548550
C             1.5259821387        1.5755222595        9.2545260972
C            10.1283557106       10.0752320715        9.9789580719
C             8.4881272833        8.5180186955        8.5563191381
C             9.2024555023        9.2415490978        9.2576891796
C             0.6321236825       10.1487501421        9.5347929078
C             2.4629397217        8.2474499429        8.9685412247
C             1.4932645252        9.2924371793        9.0550887521
C            10.0773094375        0.6932273239       10.0359950322
C             8.5366765046        2.2323361833        8.4885733778
C             9.2522543087        1.5155161202        9.1916911115
C            10.1315333559       10.0771664856        0.7031871745
C             8.5052357988        8.5113000950        2.1452107945
C             9.2137590084        9.2274613221        1.4327348021
C             0.6971284924        0.6472232177        0.7067400184
C             2.2653976159        2.2741161051        2.1456296591
C             1.5492628969        1.5668127592        1.4309446046
O             2.8471846576        7.7487848202       10.0517759497
End final coordinates



     Writing all to output data dir ./pwscf.save/

     init_run     :      2.68s CPU      2.80s WALL (       1 calls)
     electrons    :   1756.39s CPU   1825.60s WALL (      68 calls)
     update_pot   :    102.59s CPU    103.72s WALL (      67 calls)
     forces       :    105.53s CPU    109.63s WALL (      68 calls)

     Called by init_run:
     wfcinit      :      0.68s CPU      0.71s WALL (       1 calls)
     potinit      :      1.10s CPU      1.14s WALL (       1 calls)
     hinit0       :      0.67s CPU      0.69s WALL (       1 calls)

     Called by electrons:
     c_bands      :    935.71s CPU    963.57s WALL (     833 calls)
     sum_band     :    249.30s CPU    257.28s WALL (     833 calls)
     v_of_rho     :    208.87s CPU    215.11s WALL (     886 calls)
     newd         :     93.59s CPU     95.58s WALL (     886 calls)
     PAW_pot      :    293.50s CPU    295.22s WALL (     953 calls)
     mix_rho      :     22.53s CPU     24.08s WALL (     833 calls)

     Called by c_bands:
     init_us_2    :     14.31s CPU     14.57s WALL (    3604 calls)
     init_us_2:cp :     14.28s CPU     14.56s WALL (    3604 calls)
     regterg      :    911.23s CPU    938.50s WALL (    1666 calls)

     Called by *egterg:
     rdiaghg      :     58.24s CPU     58.57s WALL (    5649 calls)
     h_psi        :    523.04s CPU    547.04s WALL (    5815 calls)
     s_psi        :     90.44s CPU     91.03s WALL (    5815 calls)
     g_psi        :      1.79s CPU      1.81s WALL (    4147 calls)

     Called by h_psi:
     h_psi:calbec :     86.84s CPU     88.21s WALL (    5815 calls)
     vloc_psi     :    341.68s CPU    363.64s WALL (    5815 calls)
     add_vuspsi   :     89.76s CPU     90.36s WALL (    5815 calls)

     General routines
     calbec       :    135.50s CPU    137.56s WALL (    8159 calls)
     fft          :     80.13s CPU     89.68s WALL (   19251 calls)
     ffts         :      4.01s CPU      4.57s WALL (    3438 calls)
     fftw         :    357.20s CPU    380.44s WALL (  572290 calls)
     interpolate  :     11.46s CPU     12.66s WALL (    1772 calls)

     Parallel routines

     PWSCF        :  33m34.76s CPU  35m 0.11s WALL


   This run was terminated on:   2:46:31  25May2025            

=------------------------------------------------------------------------------=
   JOB DONE.
=------------------------------------------------------------------------------=
