ITEM: TIMESTEP
0
ITEM: NUMBER OF ATOMS
49
ITEM: BOX BOUNDS pp pp pp
0.0000000000000000e+00 1.1000000000000000e+01
0.0000000000000000e+00 1.1002000000000001e+01
0.0000000000000000e+00 1.1000000000000000e+01
ITEM: ATOMS id type x y z 
10 1 4.603 4.603 4.603 
11 1 3.085 3.085 3.085 
12 1 3.796 3.796 3.796 
46 1 0.726 0.725 0.725 
47 1 2.26 2.259 2.26 
48 1 1.551 1.55 1.55 
19 1 4.546 4.545 6.226 
20 1 3.013 3.013 7.764 
21 1 3.721 3.721 7.053 
31 1 0.668 0.667 10.103 
32 1 2.187 2.187 8.589 
33 1 1.476 1.475 9.298 
16 1 4.546 6.225 4.546 
17 1 3.013 7.765 3.013 
18 1 3.721 7.053 3.722 
25 1 0.668 10.103 0.668 
26 1 2.188 8.589 2.188 
27 1 1.476 9.298 1.476 
49 2 1.1 9.842 2.656 
4 1 4.608 6.169 6.169 
5 1 3.086 7.684 7.684 
6 1 3.799 6.974 6.974 
37 1 0.729 10.046 10.046 
38 1 2.259 8.509 8.508 
39 1 1.552 9.219 9.219 
13 1 6.225 4.546 4.546 
14 1 7.764 3.013 3.013 
15 1 7.053 3.721 3.722 
28 1 10.102 0.667 0.668 
29 1 8.589 2.187 2.188 
30 1 9.298 1.475 1.476 
1 1 6.168 4.608 6.169 
2 1 7.684 3.086 7.684 
3 1 6.974 3.799 6.974 
40 1 10.045 0.728 10.046 
41 1 8.508 2.259 8.508 
42 1 9.218 1.551 9.218 
7 1 6.169 6.169 4.608 
8 1 7.684 7.684 3.086 
9 1 6.974 6.974 3.799 
43 1 10.046 10.047 0.729 
44 1 8.508 8.509 2.259 
45 1 9.219 9.219 1.552 
22 1 6.229 6.229 6.229 
23 1 7.764 7.765 7.765 
24 1 7.055 7.056 7.055 
34 1 10.108 10.108 10.107 
35 1 8.59 8.59 8.59 
36 1 9.301 9.301 9.3 
ITEM: TIMESTEP
10
ITEM: NUMBER OF ATOMS
49
ITEM: BOX BOUNDS pp pp pp
0.0000000000000000e+00 1.1000000000000000e+01
0.0000000000000000e+00 1.1002000000000001e+01
0.0000000000000000e+00 1.1000000000000000e+01
ITEM: ATOMS id type x y z 
10 1 4.59744 4.59548 4.59736 
11 1 3.08639 3.08559 3.08611 
12 1 3.7906 3.79189 3.79103 
46 1 0.741908 0.722474 0.744182 
47 1 2.27431 2.27674 2.27367 
48 1 1.57344 1.56598 1.57367 
19 1 4.53756 4.537 6.23395 
20 1 3.00388 3.00256 7.77397 
21 1 3.70659 3.70834 7.06617 
31 1 0.669097 0.691872 10.0843 
32 1 2.19122 2.18964 8.58477 
33 1 1.48323 1.48651 9.28992 
16 1 4.53405 6.23725 4.53716 
17 1 3.01395 7.76041 2.99398 
18 1 3.72334 7.05127 3.71427 
25 1 0.627514 10.1448 0.608216 
26 1 2.18821 8.60481 2.3158 
27 1 1.43984 9.32596 1.39737 
49 2 1.15431 9.78352 2.67806 
4 1 4.6024 6.17406 6.17599 
5 1 3.0882 7.68169 7.68223 
6 1 3.79506 6.97775 6.97691 
37 1 0.748722 10.0256 10.0456 
38 1 2.27704 8.49124 8.48705 
39 1 1.57541 9.19543 9.20145 
13 1 6.23347 4.53804 4.53759 
14 1 7.77383 3.00275 3.0045 
15 1 7.06595 3.70871 3.70712 
28 1 10.0832 0.687103 0.67086 
29 1 8.58623 2.19038 2.19146 
30 1 9.28787 1.48394 1.48391 
1 1 6.17468 4.5994 6.17752 
2 1 7.68464 3.08346 7.68681 
3 1 6.98494 3.79133 6.98087 
40 1 10.0328 0.738947 10.0344 
41 1 8.49678 2.26906 8.49765 
42 1 9.20524 1.56627 9.20361 
7 1 6.17604 6.17424 4.60223 
8 1 7.68372 7.6831 3.08664 
9 1 6.97873 6.9797 3.79341 
43 1 10.0488 10.03 0.748431 
44 1 8.49241 8.49632 2.27145 
45 1 9.2015 9.19573 1.57616 
22 1 6.23788 6.2382 6.23618 
23 1 7.77371 7.77377 7.77325 
24 1 7.06688 7.06886 7.06915 
34 1 10.0833 10.1052 10.0883 
35 1 8.58827 8.58428 8.58605 
36 1 9.28731 9.29627 9.29117 
ITEM: TIMESTEP
20
ITEM: NUMBER OF ATOMS
49
ITEM: BOX BOUNDS pp pp pp
0.0000000000000000e+00 1.1000000000000000e+01
0.0000000000000000e+00 1.1002000000000001e+01
0.0000000000000000e+00 1.1000000000000000e+01
ITEM: ATOMS id type x y z 
10 1 4.60014 4.58767 4.60116 
11 1 3.08543 3.09105 3.08557 
12 1 3.79905 3.78824 3.79841 
46 1 0.738021 0.727977 0.741914 
47 1 2.27802 2.27773 2.277 
48 1 1.57248 1.56777 1.5735 
19 1 4.53582 4.53332 6.23722 
20 1 3.0017 3.00223 7.77412 
21 1 3.7098 3.70719 7.0664 
31 1 0.667771 0.691724 10.0879 
32 1 2.19637 2.18941 8.58626 
33 1 1.47285 1.48841 9.28727 
16 1 4.53409 6.23776 4.53694 
17 1 3.01419 7.75878 2.97514 
18 1 3.7215 7.05078 3.70198 
25 1 0.626359 10.1465 0.603323 
26 1 2.14509 8.65797 2.3712 
27 1 1.44418 9.31674 1.35944 
49 2 1.18291 9.75237 2.68792 
4 1 4.60554 6.16978 6.18332 
5 1 3.08766 7.6823 7.6761 
6 1 3.8034 6.96942 6.98107 
37 1 0.743659 10.03 10.0362 
38 1 2.27963 8.48855 8.48691 
39 1 1.57739 9.1936 9.19714 
13 1 6.23678 4.53499 4.53556 
14 1 7.7745 3.00248 3.00209 
15 1 7.06672 3.70745 3.70997 
28 1 10.0847 0.683654 0.671574 
29 1 8.58564 2.18909 2.19687 
30 1 9.287 1.48775 1.47438 
1 1 6.17673 4.60054 6.17499 
2 1 7.68717 3.08495 7.68427 
3 1 6.97546 3.79308 6.98053 
40 1 10.0349 0.739154 10.0335 
41 1 8.49626 2.27182 8.49549 
42 1 9.20148 1.56601 9.2036 
7 1 6.18433 6.1718 4.60435 
8 1 7.6786 7.68448 3.08567 
9 1 6.9827 6.97162 3.80063 
43 1 10.0438 10.0342 0.745225 
44 1 8.49055 8.49184 2.27552 
45 1 9.20228 9.19862 1.57426 
22 1 6.24115 6.23875 6.24083 
23 1 7.77381 7.77491 7.77554 
24 1 7.06906 7.06752 7.06701 
34 1 10.0804 10.1086 10.091 
35 1 8.58593 8.58215 8.58548 
36 1 9.28899 9.30021 9.29019 
ITEM: TIMESTEP
30
ITEM: NUMBER OF ATOMS
49
ITEM: BOX BOUNDS pp pp pp
0.0000000000000000e+00 1.1000000000000000e+01
0.0000000000000000e+00 1.1002000000000001e+01
0.0000000000000000e+00 1.1000000000000000e+01
ITEM: ATOMS id type x y z 
10 1 4.60137 4.59219 4.60175 
11 1 3.08741 3.08877 3.08719 
12 1 3.79666 3.79345 3.79653 
46 1 0.737238 0.725913 0.741968 
47 1 2.27736 2.27719 2.27605 
48 1 1.57181 1.56646 1.57353 
19 1 4.53634 4.5322 6.23794 
20 1 3.00117 3.00059 7.77566 
21 1 3.70802 3.7066 7.06684 
31 1 0.666111 0.692451 10.0878 
32 1 2.19344 2.18972 8.58485 
33 1 1.47642 1.48719 9.29109 
16 1 4.53689 6.23511 4.53788 
17 1 3.01743 7.75507 2.97487 
18 1 3.72182 7.05028 3.69897 
25 1 0.631168 10.142 0.604755 
26 1 2.13968 8.66444 2.37864 
27 1 1.44472 9.31568 1.35533 
49 2 1.18109 9.75453 2.69162 
4 1 4.60678 6.16883 6.17888 
5 1 3.08993 7.68006 7.67835 
6 1 3.80124 6.97141 6.97496 
37 1 0.742964 10.0305 10.0366 
38 1 2.27993 8.48849 8.48765 
39 1 1.57623 9.19446 9.19673 
13 1 6.23758 4.5344 4.53584 
14 1 7.77551 3.00118 3.00199 
15 1 7.06703 3.7075 3.70851 
28 1 10.0852 0.684114 0.670174 
29 1 8.58523 2.19055 2.19352 
30 1 9.28889 1.48388 1.47872 
1 1 6.1758 4.59962 6.17617 
2 1 7.68516 3.08472 7.68503 
3 1 6.97815 3.79448 6.97806 
40 1 10.0324 0.740487 10.0324 
41 1 8.49441 2.27263 8.49463 
42 1 9.20206 1.56754 9.20232 
7 1 6.17992 6.17046 4.60531 
8 1 7.68122 7.68258 3.08719 
9 1 6.97734 6.9744 3.79833 
43 1 10.0459 10.0351 0.745009 
44 1 8.49155 8.4929 2.27456 
45 1 9.20347 9.19907 1.57393 
22 1 6.24243 6.23873 6.24052 
23 1 7.77515 7.7757 7.77583 
24 1 7.06899 7.06775 7.06853 
34 1 10.0806 10.1086 10.0918 
35 1 8.58652 8.58335 8.5848 
36 1 9.28823 9.2996 9.29248 
ITEM: TIMESTEP
40
ITEM: NUMBER OF ATOMS
49
ITEM: BOX BOUNDS pp pp pp
0.0000000000000000e+00 1.1000000000000000e+01
0.0000000000000000e+00 1.1002000000000001e+01
0.0000000000000000e+00 1.1000000000000000e+01
ITEM: ATOMS id type x y z 
10 1 4.60288 4.59889 4.60315 
11 1 3.08906 3.0886 3.08882 
12 1 3.79691 3.79641 3.7961 
46 1 0.736146 0.718353 0.743364 
47 1 2.27593 2.27519 2.27468 
48 1 1.57145 1.56396 1.57365 
19 1 4.53646 4.53069 6.23923 
20 1 2.99738 3.00021 7.77618 
21 1 3.71219 3.70153 7.07028 
31 1 0.662092 0.693585 10.0927 
32 1 2.18995 2.18777 8.58663 
33 1 1.47356 1.48671 9.29429 
16 1 4.53904 6.23268 4.53228 
17 1 3.01681 7.7537 2.96178 
18 1 3.7183 7.0536 3.68619 
25 1 0.646221 10.129 0.604386 
26 1 2.12224 8.6853 2.4046 
27 1 1.45095 9.30899 1.35546 
49 2 1.17312 9.76317 2.70093 
4 1 4.60851 6.16666 6.16991 
5 1 3.09297 7.67707 7.67668 
6 1 3.80295 6.96947 6.97112 
37 1 0.740332 10.0325 10.0356 
38 1 2.28095 8.48756 8.48808 
39 1 1.57649 9.19411 9.19563 
13 1 6.24021 4.53225 4.53725 
14 1 7.77657 2.99981 3.00091 
15 1 7.06852 3.70635 3.7084 
28 1 10.0887 0.681271 0.669687 
29 1 8.58688 2.18894 2.19042 
30 1 9.29075 1.48191 1.47693 
1 1 6.17402 4.60091 6.17419 
2 1 7.6833 3.08638 7.68393 
3 1 6.97705 3.79555 6.97565 
40 1 10.0291 0.743738 10.03 
41 1 8.49271 2.27421 8.49293 
42 1 9.20082 1.5695 9.20109 
7 1 6.17319 6.16963 4.60567 
8 1 7.68127 7.68165 3.08825 
9 1 6.97589 6.97423 3.79723 
43 1 10.053 10.0362 0.745359 
44 1 8.49368 8.49418 2.2732 
45 1 9.20702 9.20015 1.57431 
22 1 6.24484 6.23673 6.2418 
23 1 7.77622 7.7769 7.77653 
24 1 7.07079 7.06664 7.06962 
34 1 10.0785 10.1124 10.0962 
35 1 8.5874 8.58602 8.58643 
36 1 9.28868 9.30177 9.2944 
ITEM: TIMESTEP
50
ITEM: NUMBER OF ATOMS
49
ITEM: BOX BOUNDS pp pp pp
0.0000000000000000e+00 1.1000000000000000e+01
0.0000000000000000e+00 1.1002000000000001e+01
0.0000000000000000e+00 1.1000000000000000e+01
ITEM: ATOMS id type x y z 
10 1 4.60267 4.59873 4.60311 
11 1 3.08901 3.08918 3.08839 
12 1 3.79702 3.79533 3.79685 
46 1 0.736676 0.7182 0.743665 
47 1 2.27625 2.27598 2.27487 
48 1 1.57177 1.56307 1.57426 
19 1 4.53717 4.5306 6.23922 
20 1 2.99838 2.99999 7.77612 
21 1 3.71104 3.70226 7.06988 
31 1 0.662056 0.693615 10.093 
32 1 2.19012 2.18787 8.58699 
33 1 1.47281 1.48668 9.29378 
16 1 4.53848 6.23357 4.53158 
17 1 3.01593 7.75486 2.96103 
18 1 3.71869 7.05256 3.68529 
25 1 0.646208 10.1285 0.603402 
26 1 2.12213 8.68542 2.40581 
27 1 1.45093 9.3092 1.35665 
49 2 1.17188 9.76445 2.70119 
4 1 4.60886 6.16618 6.17012 
5 1 3.09317 7.67691 7.6765 
6 1 3.80299 6.96935 6.97104 
37 1 0.740625 10.0321 10.0356 
38 1 2.28095 8.48759 8.48805 
39 1 1.57684 9.19372 9.19543 
13 1 6.24016 4.53244 4.53706 
14 1 7.77654 2.99994 3.00078 
15 1 7.06881 3.70586 3.7085 
28 1 10.0886 0.680887 0.669615 
29 1 8.58679 2.18897 2.19031 
30 1 9.29093 1.48183 1.47698 
1 1 6.17378 4.60111 6.17389 
2 1 7.68341 3.08643 7.68338 
3 1 6.97651 3.79575 6.97635 
40 1 10.0292 0.743822 10.0302 
41 1 8.49281 2.27445 8.49288 
42 1 9.20035 1.56938 9.20092 
7 1 6.17372 6.16962 4.60562 
8 1 7.68131 7.68166 3.0878 
9 1 6.97603 6.97446 3.79778 
43 1 10.0535 10.0359 0.745725 
44 1 8.49372 8.49448 2.27324 
45 1 9.20749 9.19972 1.57426 
22 1 6.24459 6.23651 6.24161 
23 1 7.77601 7.77629 7.77629 
24 1 7.07078 7.06708 7.06951 
34 1 10.0789 10.1124 10.0964 
35 1 8.58786 8.58578 8.58617 
36 1 9.28754 9.30245 9.29494 
ITEM: TIMESTEP
60
ITEM: NUMBER OF ATOMS
49
ITEM: BOX BOUNDS pp pp pp
0.0000000000000000e+00 1.1000000000000000e+01
0.0000000000000000e+00 1.1002000000000001e+01
0.0000000000000000e+00 1.1000000000000000e+01
ITEM: ATOMS id type x y z 
10 1 4.6026 4.59886 4.6029 
11 1 3.08903 3.0892 3.08834 
12 1 3.79702 3.79536 3.79678 
46 1 0.738122 0.716645 0.744754 
47 1 2.27634 2.27611 2.27513 
48 1 1.57232 1.56241 1.57472 
19 1 4.53801 4.5303 6.23916 
20 1 3.00008 2.99876 7.77676 
21 1 3.70821 3.70385 7.06889 
31 1 0.661172 0.693802 10.0939 
32 1 2.18948 2.18789 8.5871 
33 1 1.47246 1.48683 9.29436 
16 1 4.53794 6.23414 4.52915 
17 1 3.01584 7.75476 2.96011 
18 1 3.71905 7.05214 3.68418 
25 1 0.647184 10.1276 0.601356 
26 1 2.12142 8.68623 2.40981 
27 1 1.4506 9.31023 1.36043 
49 2 1.16836 9.76796 2.70149 
4 1 4.60906 6.16585 6.16875 
5 1 3.09378 7.67633 7.67612 
6 1 3.80332 6.96893 6.9702 
37 1 0.741499 10.0311 10.0354 
38 1 2.28149 8.48713 8.48745 
39 1 1.57747 9.19298 9.19516 
13 1 6.23984 4.53289 4.53664 
14 1 7.77673 2.99971 3.00087 
15 1 7.06886 3.70583 3.7082 
28 1 10.0893 0.680223 0.669642 
29 1 8.5868 2.18892 2.18983 
30 1 9.29129 1.4815 1.47703 
1 1 6.1736 4.60112 6.17359 
2 1 7.68312 3.0867 7.68303 
3 1 6.97615 3.796 6.97614 
40 1 10.0293 0.743707 10.0309 
41 1 8.49264 2.27473 8.49258 
42 1 9.19995 1.56974 9.20081 
7 1 6.17357 6.16975 4.60524 
8 1 7.68142 7.68183 3.08766 
9 1 6.97606 6.97449 3.79751 
43 1 10.0551 10.0345 0.746636 
44 1 8.49382 8.49447 2.27344 
45 1 9.20831 9.19932 1.57463 
22 1 6.24392 6.23688 6.24077 
23 1 7.77624 7.77591 7.77634 
24 1 7.07069 7.06733 7.06933 
34 1 10.0785 10.1131 10.0972 
35 1 8.5877 8.58618 8.58627 
36 1 9.28729 9.30273 9.29532 
ITEM: TIMESTEP
70
ITEM: NUMBER OF ATOMS
49
ITEM: BOX BOUNDS pp pp pp
0.0000000000000000e+00 1.1000000000000000e+01
0.0000000000000000e+00 1.1002000000000001e+01
0.0000000000000000e+00 1.1000000000000000e+01
ITEM: ATOMS id type x y z 
10 1 4.60262 4.59887 4.60287 
11 1 3.08904 3.08921 3.08834 
12 1 3.79701 3.79537 3.79679 
46 1 0.738206 0.716559 0.744807 
47 1 2.27635 2.27612 2.27515 
48 1 1.57236 1.56232 1.57473 
19 1 4.53795 4.53033 6.23913 
20 1 3.00012 2.99872 7.7768 
21 1 3.70816 3.70389 7.06884 
31 1 0.661172 0.693822 10.094 
32 1 2.18947 2.1879 8.5872 
33 1 1.47233 1.48681 9.29428 
16 1 4.53794 6.23413 4.52899 
17 1 3.0158 7.75478 2.96002 
18 1 3.71905 7.05214 3.68406 
25 1 0.647294 10.1276 0.601228 
26 1 2.12131 8.68636 2.41022 
27 1 1.4506 9.31029 1.36071 
49 2 1.16811 9.76821 2.70154 
4 1 4.60905 6.16581 6.16863 
5 1 3.09382 7.67626 7.67607 
6 1 3.8034 6.96891 6.97013 
37 1 0.74155 10.0311 10.0354 
38 1 2.28155 8.48708 8.48742 
39 1 1.5775 9.19294 9.19511 
13 1 6.23981 4.53291 4.53658 
14 1 7.77672 2.99971 3.0009 
15 1 7.06888 3.70584 3.70817 
28 1 10.0894 0.680158 0.669682 
29 1 8.58681 2.1889 2.18978 
30 1 9.29133 1.48148 1.47702 
1 1 6.17358 4.60115 6.17356 
2 1 7.68309 3.08673 7.68302 
3 1 6.97613 3.796 6.97608 
40 1 10.0292 0.74366 10.031 
41 1 8.4926 2.27467 8.49259 
42 1 9.2 1.56987 9.20079 
7 1 6.17356 6.16975 4.60519 
8 1 7.68142 7.68183 3.08763 
9 1 6.97607 6.97451 3.79752 
43 1 10.0551 10.0344 0.746673 
44 1 8.49383 8.49448 2.27345 
45 1 9.20841 9.19927 1.57468 
22 1 6.24386 6.23694 6.24071 
23 1 7.77625 7.77589 7.77634 
24 1 7.07069 7.06731 7.0693 
34 1 10.0785 10.1131 10.0972 
35 1 8.58769 8.58622 8.5863 
36 1 9.28728 9.30276 9.29535 
ITEM: TIMESTEP
72
ITEM: NUMBER OF ATOMS
49
ITEM: BOX BOUNDS pp pp pp
0.0000000000000000e+00 1.1000000000000000e+01
0.0000000000000000e+00 1.1002000000000001e+01
0.0000000000000000e+00 1.1000000000000000e+01
ITEM: ATOMS id type x y z 
10 1 4.60261 4.59887 4.60288 
11 1 3.08904 3.08921 3.08834 
12 1 3.79702 3.79537 3.79678 
46 1 0.738211 0.716555 0.744809 
47 1 2.27635 2.27612 2.27515 
48 1 1.57236 1.56233 1.57473 
19 1 4.53795 4.53033 6.23913 
20 1 3.00012 2.99872 7.7768 
21 1 3.70815 3.70389 7.06883 
31 1 0.661174 0.693822 10.094 
32 1 2.18947 2.1879 8.58721 
33 1 1.47232 1.48681 9.29427 
16 1 4.53794 6.23413 4.52898 
17 1 3.0158 7.75478 2.96002 
18 1 3.71904 7.05214 3.68405 
25 1 0.647299 10.1276 0.601222 
26 1 2.1213 8.68637 2.41024 
27 1 1.4506 9.31029 1.36072 
49 2 1.1681 9.76822 2.70155 
4 1 4.60905 6.16581 6.16862 
5 1 3.09382 7.67625 7.67606 
6 1 3.80341 6.96892 6.97014 
37 1 0.741551 10.0311 10.0354 
38 1 2.28155 8.48707 8.48742 
39 1 1.5775 9.19294 9.19511 
13 1 6.23981 4.53291 4.53658 
14 1 7.77672 2.99971 3.0009 
15 1 7.06888 3.70584 3.70817 
28 1 10.0894 0.680158 0.669681 
29 1 8.58681 2.1889 2.18977 
30 1 9.29133 1.48147 1.47703 
1 1 6.17358 4.60115 6.17356 
2 1 7.68309 3.08674 7.68302 
3 1 6.97613 3.79599 6.97608 
40 1 10.0292 0.74366 10.031 
41 1 8.4926 2.27467 8.49259 
42 1 9.2 1.56987 9.2008 
7 1 6.17356 6.16975 4.60519 
8 1 7.68142 7.68183 3.08764 
9 1 6.97607 6.97451 3.79752 
43 1 10.0552 10.0344 0.746676 
44 1 8.49383 8.49448 2.27345 
45 1 9.20841 9.19927 1.57468 
22 1 6.24386 6.23695 6.2407 
23 1 7.77625 7.77589 7.77634 
24 1 7.07069 7.06731 7.06929 
34 1 10.0785 10.1131 10.0972 
35 1 8.58769 8.58621 8.5863 
36 1 9.28728 9.30277 9.29534 
ITEM: TIMESTEP
74
ITEM: NUMBER OF ATOMS
49
ITEM: BOX BOUNDS pp pp pp
0.0000000000000000e+00 1.1000000000000000e+01
0.0000000000000000e+00 1.1002000000000001e+01
0.0000000000000000e+00 1.1000000000000000e+01
ITEM: ATOMS id type x y z 
10 1 4.60261 4.59887 4.60288 
11 1 3.08903 3.08921 3.08834 
12 1 3.79702 3.79536 3.79678 
46 1 0.738212 0.716554 0.744811 
47 1 2.27635 2.27612 2.27515 
48 1 1.57236 1.56233 1.57473 
19 1 4.53795 4.53033 6.23913 
20 1 3.00012 2.99872 7.7768 
21 1 3.70816 3.70389 7.06883 
31 1 0.66117 0.693822 10.094 
32 1 2.18947 2.1879 8.5872 
33 1 1.47232 1.48681 9.29428 
16 1 4.53794 6.23413 4.52898 
17 1 3.0158 7.75478 2.96002 
18 1 3.71904 7.05214 3.68405 
25 1 0.6473 10.1276 0.601221 
26 1 2.1213 8.68637 2.41024 
27 1 1.4506 9.31029 1.36073 
49 2 1.1681 9.76822 2.70155 
4 1 4.60905 6.16581 6.16862 
5 1 3.09382 7.67625 7.67606 
6 1 3.80341 6.96891 6.97014 
37 1 0.741553 10.0311 10.0354 
38 1 2.28155 8.48707 8.48742 
39 1 1.5775 9.19294 9.19511 
13 1 6.23981 4.53291 4.53658 
14 1 7.77672 2.99971 3.0009 
15 1 7.06888 3.70584 3.70817 
28 1 10.0894 0.680155 0.669682 
29 1 8.58681 2.1889 2.18977 
30 1 9.29134 1.48148 1.47702 
1 1 6.17358 4.60115 6.17356 
2 1 7.68309 3.08674 7.68301 
3 1 6.97613 3.79599 6.97608 
40 1 10.0292 0.743661 10.031 
41 1 8.49261 2.27467 8.49259 
42 1 9.2 1.56987 9.2008 
7 1 6.17356 6.16975 4.60519 
8 1 7.68142 7.68183 3.08763 
9 1 6.97607 6.97451 3.79752 
43 1 10.0552 10.0344 0.746676 
44 1 8.49383 8.49448 2.27345 
45 1 9.20841 9.19927 1.57468 
22 1 6.24386 6.23694 6.2407 
23 1 7.77625 7.77589 7.77634 
24 1 7.07069 7.06731 7.06929 
34 1 10.0785 10.1132 10.0972 
35 1 8.58769 8.58622 8.5863 
36 1 9.28728 9.30277 9.29535 
ITEM: TIMESTEP
80
ITEM: NUMBER OF ATOMS
49
ITEM: BOX BOUNDS pp pp pp
-3.2796685545738793e-03 1.1003279668554574e+01
-3.2995423646710333e-03 1.1005299542364671e+01
-3.0420377310673113e-03 1.1003042037731067e+01
ITEM: ATOMS id type x y z 
10 1 4.60211 4.59836 4.60242 
11 1 3.0876 3.08777 3.08702 
12 1 3.79601 3.79433 3.79581 
46 1 0.735338 0.713625 0.742147 
47 1 2.27441 2.27417 2.27336 
48 1 1.56999 1.55992 1.57252 
19 1 4.5374 4.52978 6.2395 
20 1 2.99864 2.99722 7.77805 
21 1 3.70711 3.70284 7.06967 
31 1 0.658252 0.690889 10.0966 
32 1 2.18749 2.1859 8.58893 
33 1 1.46992 1.48441 9.29636 
16 1 4.5374 6.23454 4.52846 
17 1 3.01433 7.75612 2.95862 
18 1 3.71801 7.05304 3.68306 
25 1 0.644369 10.1304 0.598448 
26 1 2.11927 8.6883 2.40854 
27 1 1.44817 9.3126 1.35847 
49 2 1.16551 9.77078 2.69998 
4 1 4.60855 6.16617 6.16895 
5 1 3.0924 7.67754 7.67725 
6 1 3.80239 6.96981 6.97096 
37 1 0.738685 10.0338 10.0379 
38 1 2.27962 8.48888 8.48908 
39 1 1.57512 9.19519 9.19719 
13 1 6.24022 4.53236 4.53608 
14 1 7.77806 2.99822 2.99954 
15 1 7.06979 3.70479 3.7072 
28 1 10.0922 0.677218 0.666977 
29 1 8.58867 2.18691 2.18793 
30 1 9.29357 1.47906 1.47481 
1 1 6.17394 4.60064 6.17389 
2 1 7.68438 3.08529 7.68421 
3 1 6.97703 3.79497 6.97692 
40 1 10.032 0.740776 10.0335 
41 1 8.4944 2.27273 8.49425 
42 1 9.20222 1.56748 9.20287 
7 1 6.17393 6.17012 4.60473 
8 1 7.68272 7.68313 3.08632 
9 1 6.97695 6.97541 3.79656 
43 1 10.0579 10.0371 0.744013 
44 1 8.49563 8.49629 2.27165 
45 1 9.21066 9.20152 1.57247 
22 1 6.24428 6.23736 6.24108 
23 1 7.7776 7.77724 7.77759 
24 1 7.0716 7.06823 7.07014 
34 1 10.0813 10.1159 10.0998 
35 1 8.58955 8.58807 8.58802 
36 1 9.28952 9.30505 9.29743 
ITEM: TIMESTEP
90
ITEM: NUMBER OF ATOMS
49
ITEM: BOX BOUNDS pp pp pp
-7.5206396734411752e-03 1.1007520639673443e+01
-7.7805015360035814e-03 1.1009780501536003e+01
-1.6878650886428623e-03 1.1001687865088641e+01
ITEM: ATOMS id type x y z 
10 1 4.60235 4.59853 4.60355 
11 1 3.08598 3.08606 3.08785 
12 1 3.79439 3.79262 3.79593 
46 1 0.730868 0.708442 0.742514 
47 1 2.27129 2.27094 2.27354 
48 1 1.56655 1.5561 1.57307 
19 1 4.53737 4.52978 6.23853 
20 1 2.9973 2.99571 7.77695 
21 1 3.70608 3.70177 7.06888 
31 1 0.653516 0.68598 10.0966 
32 1 2.18463 2.18295 8.58843 
33 1 1.46707 1.48144 9.29519 
16 1 4.53741 6.23437 4.52923 
17 1 3.01285 7.75752 2.95973 
18 1 3.71708 7.05385 3.68384 
25 1 0.639857 10.1349 0.598521 
26 1 2.11626 8.69129 2.40919 
27 1 1.44463 9.31629 1.36037 
49 2 1.16212 9.77422 2.70005 
4 1 4.60882 6.16575 6.16781 
5 1 3.09084 7.67903 7.67643 
6 1 3.80079 6.97127 6.97086 
37 1 0.734312 10.0382 10.0382 
38 1 2.27651 8.49195 8.48887 
39 1 1.57178 9.19851 9.19684 
13 1 6.24001 4.53236 4.53703 
14 1 7.77929 2.99671 3.00072 
15 1 7.07061 3.70371 3.70798 
28 1 10.0968 0.672126 0.667282 
29 1 8.59129 2.18392 2.18843 
30 1 9.29628 1.47608 1.47612 
1 1 6.1735 4.60087 6.17276 
2 1 7.68578 3.08361 7.68339 
3 1 6.97846 3.79327 6.97684 
40 1 10.0362 0.736114 10.0332 
41 1 8.49726 2.26955 8.49407 
42 1 9.20544 1.56393 9.20234 
7 1 6.17355 6.16973 4.60583 
8 1 7.68415 7.68468 3.08713 
9 1 6.97843 6.97693 3.79666 
43 1 10.0627 10.0416 0.744353 
44 1 8.49856 8.49936 2.27184 
45 1 9.21415 9.20496 1.573 
22 1 6.24404 6.23724 6.24009 
23 1 7.77881 7.7785 7.77648 
24 1 7.07243 7.06913 7.06934 
34 1 10.0858 10.1207 10.0998 
35 1 8.59217 8.5909 8.5875 
36 1 9.29211 9.30784 9.29629 
ITEM: TIMESTEP
100
ITEM: NUMBER OF ATOMS
49
ITEM: BOX BOUNDS pp pp pp
-1.0716847524696534e-02 1.1010716847524698e+01
-1.1144859320240270e-02 1.1013144859320239e+01
-2.2389167852009629e-03 1.1002238916785197e+01
ITEM: ATOMS id type x y z 
10 1 4.60251 4.5986 4.6041 
11 1 3.08475 3.08474 3.08776 
12 1 3.79316 3.79136 3.79552 
46 1 0.72757 0.704696 0.741506 
47 1 2.26881 2.26837 2.27262 
48 1 1.56418 1.55346 1.57261 
19 1 4.53734 4.52981 6.23801 
20 1 2.9964 2.99472 7.77663 
21 1 3.70518 3.7008 7.0689 
31 1 0.649971 0.682453 10.0978 
32 1 2.1825 2.18075 8.58892 
33 1 1.4649 1.47921 9.29541 
16 1 4.53742 6.23423 4.52952 
17 1 3.01182 7.75848 2.96 
18 1 3.71623 7.05459 3.68374 
25 1 0.636629 10.1382 0.597445 
26 1 2.11405 8.69347 2.40882 
27 1 1.44195 9.3191 1.36066 
49 2 1.15954 9.77681 2.69931 
4 1 4.60897 6.16546 6.16718 
5 1 3.08963 7.68016 7.67645 
6 1 3.79963 6.97236 6.97121 
37 1 0.7311 10.0414 10.0394 
38 1 2.2741 8.49433 8.48967 
39 1 1.56949 9.20077 9.19733 
13 1 6.23982 4.5324 4.53743 
14 1 7.78005 2.99573 3.00098 
15 1 7.07143 3.70272 3.708 
28 1 10.1002 0.66846 0.666117 
29 1 8.59322 2.18176 2.18782 
30 1 9.29837 1.47373 1.47606 
1 1 6.17319 4.601 6.17214 
2 1 7.68687 3.08231 7.68343 
3 1 6.97953 3.79203 6.9772 
40 1 10.0394 0.732644 10.0343 
41 1 8.49955 2.26705 8.49491 
42 1 9.20771 1.56138 9.20283 
7 1 6.17331 6.16948 4.60636 
8 1 7.68526 7.68586 3.08703 
9 1 6.97953 6.97806 3.79625 
43 1 10.0662 10.045 0.743332 
44 1 8.50091 8.5018 2.27093 
45 1 9.21654 9.20731 1.57252 
22 1 6.24385 6.23714 6.23955 
23 1 7.7796 7.77932 7.77615 
24 1 7.07319 7.06996 7.06937 
34 1 10.089 10.1242 10.101 
35 1 8.59411 8.59297 8.588 
36 1 9.2941 9.31001 9.29646 
ITEM: TIMESTEP
110
ITEM: NUMBER OF ATOMS
49
ITEM: BOX BOUNDS pp pp pp
-1.4142146777458934e-02 1.1014142146777459e+01
-1.4758016409600392e-02 1.1016758016409598e+01
-3.5445686462909107e-03 1.1003544568646285e+01
ITEM: ATOMS id type x y z 
10 1 4.60279 4.59883 4.60469 
11 1 3.08344 3.08336 3.08739 
12 1 3.79182 3.78993 3.79479 
46 1 0.723911 0.700511 0.739688 
47 1 2.26601 2.26546 2.27108 
48 1 1.56163 1.55058 1.57158 
19 1 4.53746 4.53001 6.23737 
20 1 2.99562 2.99378 7.77643 
21 1 3.7042 3.6998 7.06911 
31 1 0.64602 0.678555 10.0998 
32 1 2.18018 2.17837 8.58991 
33 1 1.46256 1.47684 9.29605 
16 1 4.53759 6.23392 4.52977 
17 1 3.0108 7.75946 2.96015 
18 1 3.71535 7.05537 3.68335 
25 1 0.633174 10.1417 0.595574 
26 1 2.11168 8.6958 2.40805 
27 1 1.43896 9.32227 1.36069 
49 2 1.15675 9.77961 2.69802 
4 1 4.60931 6.16502 6.16645 
5 1 3.08841 7.68133 7.67672 
6 1 3.79829 6.97357 6.97176 
37 1 0.727528 10.0449 10.0415 
38 1 2.27137 8.49699 8.49101 
39 1 1.56705 9.20324 9.19841 
13 1 6.23946 4.53259 4.53793 
14 1 7.78076 2.99479 3.00116 
15 1 7.07222 3.70173 3.70764 
28 1 10.1041 0.664344 0.6642 
29 1 8.59539 2.17936 2.18677 
30 1 9.30047 1.4713 1.47536 
1 1 6.17274 4.60132 6.17143 
2 1 7.68801 3.08096 7.68372 
3 1 6.98069 3.79061 6.97781 
40 1 10.043 0.728733 10.0362 
41 1 8.50214 2.26421 8.49636 
42 1 9.21018 1.55865 9.20387 
7 1 6.17298 6.16908 4.60698 
8 1 7.6865 7.68711 3.08671 
9 1 6.98063 6.97934 3.79538 
43 1 10.07 10.0486 0.741496 
44 1 8.50359 8.50458 2.2694 
45 1 9.21917 9.20983 1.57148 
22 1 6.24344 6.23688 6.23888 
23 1 7.78029 7.78004 7.77594 
24 1 7.074 7.0708 7.06956 
34 1 10.0927 10.1282 10.103 
35 1 8.59629 8.59519 8.58897 
36 1 9.29603 9.31242 9.29712 
ITEM: TIMESTEP
120
ITEM: NUMBER OF ATOMS
49
ITEM: BOX BOUNDS pp pp pp
-1.6601443274715032e-02 1.1016601443274716e+01
-1.7374198855198038e-02 1.1019374198855195e+01
-5.2498809764087006e-03 1.1005249880976402e+01
ITEM: ATOMS id type x y z 
10 1 4.60327 4.59926 4.6052 
11 1 3.08256 3.08243 3.08685 
12 1 3.79073 3.78879 3.7939 
46 1 0.721042 0.697098 0.73746 
47 1 2.26373 2.263 2.26926 
48 1 1.5597 1.54842 1.57021 
19 1 4.53785 4.53054 6.23667 
20 1 2.99535 2.99336 7.77633 
21 1 3.70355 3.69913 7.06942 
31 1 0.642831 0.675428 10.1022 
32 1 2.17835 2.17653 8.59107 
33 1 1.46103 1.4753 9.29713 
16 1 4.53805 6.23336 4.52997 
17 1 3.01018 7.76007 2.96027 
18 1 3.71482 7.05582 3.68277 
25 1 0.630675 10.1442 0.593335 
26 1 2.10996 8.69748 2.40708 
27 1 1.4366 9.32489 1.36066 
49 2 1.15466 9.78166 2.69644 
4 1 4.60976 6.16442 6.16564 
5 1 3.08758 7.68208 7.67707 
6 1 3.79735 6.97452 6.97254 
37 1 0.724765 10.0477 10.0439 
38 1 2.26918 8.49922 8.49268 
39 1 1.56517 9.20503 9.19976 
13 1 6.23885 4.53309 4.53843 
14 1 7.78099 2.99437 3.00123 
15 1 7.07272 3.70107 3.70719 
28 1 10.1072 0.660987 0.662006 
29 1 8.59704 2.17749 2.1855 
30 1 9.30188 1.46971 1.47428 
1 1 6.17208 4.60176 6.17075 
2 1 7.6887 3.08001 7.68414 
3 1 6.98172 3.7896 6.97858 
40 1 10.046 0.725543 10.0385 
41 1 8.5043 2.26187 8.49808 
42 1 9.21199 1.55664 9.20523 
7 1 6.17238 6.16854 4.60742 
8 1 7.68722 7.68798 3.0861 
9 1 6.98174 6.98038 3.79456 
43 1 10.0732 10.0516 0.739235 
44 1 8.50588 8.50686 2.26758 
45 1 9.22113 9.21179 1.57011 
22 1 6.24277 6.23637 6.23815 
23 1 7.78052 7.78024 7.77582 
24 1 7.0745 7.0714 7.06984 
34 1 10.0955 10.1314 10.1053 
35 1 8.59781 8.59703 8.59017 
36 1 9.2975 9.31387 9.29808 
ITEM: TIMESTEP
130
ITEM: NUMBER OF ATOMS
49
ITEM: BOX BOUNDS pp pp pp
-1.9268115958814495e-02 1.1019268115958818e+01
-2.0206311671440276e-02 1.1022206311671438e+01
-8.6122329346030903e-03 1.1008612232934599e+01
ITEM: ATOMS id type x y z 
10 1 4.60355 4.59949 4.60543 
11 1 3.08153 3.0813 3.08564 
12 1 3.78963 3.7877 3.79231 
46 1 0.718046 0.693612 0.733813 
47 1 2.26137 2.26044 2.2665 
48 1 1.55763 1.5461 1.56768 
19 1 4.53819 4.53107 6.23616 
20 1 2.99497 2.99282 7.77694 
21 1 3.70287 3.69842 7.07017 
31 1 0.639592 0.672111 10.1058 
32 1 2.17641 2.17458 8.59316 
33 1 1.45928 1.4736 9.29934 
16 1 4.53844 6.23283 4.52979 
17 1 3.00934 7.76091 2.95972 
18 1 3.71422 7.05631 3.68158 
25 1 0.628192 10.1468 0.589646 
26 1 2.10822 8.69916 2.40524 
27 1 1.43406 9.32771 1.35952 
49 2 1.15237 9.78392 2.69404 
4 1 4.61002 6.16392 6.16511 
5 1 3.08664 7.68294 7.67808 
6 1 3.79636 6.9755 6.97377 
37 1 0.72182 10.0507 10.0477 
38 1 2.26686 8.50155 8.49525 
39 1 1.56312 9.20704 9.20228 
13 1 6.23825 4.53356 4.53859 
14 1 7.78135 2.99382 3.0005 
15 1 7.0733 3.70033 3.7062 
28 1 10.1104 0.657505 0.658518 
29 1 8.59878 2.17548 2.18324 
30 1 9.30348 1.46797 1.47198 
1 1 6.1715 4.60201 6.17038 
2 1 7.68949 3.07892 7.68525 
3 1 6.9828 3.78854 6.9798 
40 1 10.0491 0.722141 10.0421 
41 1 8.50654 2.25945 8.50067 
42 1 9.21393 1.55448 9.20771 
7 1 6.17196 6.16816 4.60743 
8 1 7.68812 7.68896 3.08477 
9 1 6.98281 6.98148 3.79312 
43 1 10.0764 10.0546 0.735583 
44 1 8.5083 8.50924 2.26487 
45 1 9.22324 9.21385 1.56746 
22 1 6.24212 6.23593 6.23765 
23 1 7.78088 7.78057 7.77641 
24 1 7.0751 7.07205 7.07065 
34 1 10.0985 10.1347 10.1089 
35 1 8.59954 8.59898 8.59218 
36 1 9.2989 9.31551 9.3004 
ITEM: TIMESTEP
140
ITEM: NUMBER OF ATOMS
49
ITEM: BOX BOUNDS pp pp pp
-1.9990673248939411e-02 1.1019990673248945e+01
-2.0970955508607062e-02 1.1022970955508605e+01
-1.0986200062510996e-02 1.1010986200062508e+01
ITEM: ATOMS id type x y z 
10 1 4.60387 4.59987 4.60521 
11 1 3.08133 3.08115 3.08454 
12 1 3.78911 3.78704 3.79157 
46 1 0.71692 0.692319 0.731267 
47 1 2.26037 2.25938 2.26463 
48 1 1.55704 1.54526 1.56579 
19 1 4.53859 4.53163 6.23583 
20 1 2.99519 2.99292 7.77741 
21 1 3.70268 3.6983 7.07075 
31 1 0.638503 0.670993 10.1084 
32 1 2.17579 2.17403 8.59475 
33 1 1.45877 1.47318 9.3007 
16 1 4.53889 6.23234 4.52957 
17 1 3.00916 7.76112 2.95942 
18 1 3.71416 7.05631 3.68065 
25 1 0.627619 10.1474 0.587155 
26 1 2.1078 8.6995 2.40401 
27 1 1.43312 9.32889 1.35885 
49 2 1.15162 9.7846 2.69239 
4 1 4.61047 6.16358 6.16497 
5 1 3.0866 7.68305 7.67899 
6 1 3.79576 6.97591 6.97431 
37 1 0.720755 10.0517 10.0502 
38 1 2.26591 8.50243 8.49706 
39 1 1.56255 9.20773 9.20402 
13 1 6.23767 4.53414 4.53865 
14 1 7.78115 2.99397 2.99991 
15 1 7.0734 3.70018 3.70557 
28 1 10.1116 0.656257 0.656105 
29 1 8.59928 2.1749 2.18153 
30 1 9.30395 1.46748 1.47058 
1 1 6.17126 4.60251 6.17026 
2 1 7.68975 3.07884 7.68608 
3 1 6.98298 3.78787 6.98059 
40 1 10.0503 0.720808 10.0448 
41 1 8.50739 2.2585 8.50252 
42 1 9.21463 1.55383 9.20935 
7 1 6.17166 6.16786 4.60739 
8 1 7.68836 7.6892 3.0838 
9 1 6.98323 6.98194 3.79208 
43 1 10.0776 10.0557 0.732972 
44 1 8.50935 8.51019 2.26296 
45 1 9.22402 9.21455 1.56566 
22 1 6.24147 6.23542 6.23727 
23 1 7.7807 7.78029 7.7769 
24 1 7.07509 7.07216 7.07107 
34 1 10.0995 10.1357 10.1115 
35 1 8.59996 8.59952 8.59385 
36 1 9.29931 9.3161 9.30158 
ITEM: TIMESTEP
150
ITEM: NUMBER OF ATOMS
49
ITEM: BOX BOUNDS pp pp pp
-2.0881990047344704e-02 1.1020881990047350e+01
-2.1852029610949616e-02 1.1023852029610948e+01
-1.4043982194486880e-02 1.1014043982194485e+01
ITEM: ATOMS id type x y z 
10 1 4.60401 4.60005 4.60491 
11 1 3.08098 3.08081 3.08323 
12 1 3.78859 3.78652 3.79037 
46 1 0.715771 0.691023 0.728094 
47 1 2.25938 2.25826 2.26235 
48 1 1.55621 1.54434 1.56351 
19 1 4.5389 4.5322 6.23559 
20 1 2.99528 2.99296 7.77822 
21 1 3.70254 3.69812 7.07146 
31 1 0.637271 0.669862 10.1114 
32 1 2.175 2.17346 8.59664 
33 1 1.45826 1.47262 9.30267 
16 1 4.53927 6.2319 4.52915 
17 1 3.00879 7.76152 2.95887 
18 1 3.7141 7.05629 3.67949 
25 1 0.627053 10.148 0.584098 
26 1 2.10736 8.69983 2.40247 
27 1 1.43207 9.33015 1.35772 
49 2 1.1507 9.7854 2.69047 
4 1 4.61057 6.16335 6.16479 
5 1 3.0863 7.68328 7.68001 
6 1 3.79539 6.97628 6.97536 
37 1 0.719623 10.0528 10.0532 
38 1 2.26493 8.50341 8.49919 
39 1 1.56181 9.20838 9.20627 
13 1 6.23717 4.53463 4.53859 
14 1 7.78109 2.99398 2.99903 
15 1 7.07348 3.70007 3.70459 
28 1 10.1128 0.655053 0.653193 
29 1 8.59988 2.17431 2.17942 
30 1 9.30447 1.46682 1.46867 
1 1 6.17096 4.60264 6.17028 
2 1 7.68997 3.07848 7.68718 
3 1 6.98348 3.78752 6.98164 
40 1 10.0517 0.719428 10.0479 
41 1 8.5084 2.25756 8.50467 
42 1 9.2153 1.553 9.21157 
7 1 6.1714 6.16769 4.60698 
8 1 7.68865 7.68953 3.08243 
9 1 6.9838 6.98244 3.79092 
43 1 10.0789 10.0569 0.72982 
44 1 8.51046 8.51119 2.26072 
45 1 9.22492 9.21525 1.56333 