ITEM: TIMESTEP
0
ITEM: NUMBER OF ATOMS
50
ITEM: BOX BOUNDS pp pp pp
0.0000000000000000e+00 1.1000000000000000e+01
0.0000000000000000e+00 1.1002000000000001e+01
0.0000000000000000e+00 1.1000000000000000e+01
ITEM: ATOMS id type x y z 
10 1 4.603 4.603 4.603 
11 1 3.085 3.085 3.085 
12 1 3.796 3.796 3.796 
46 1 0.726 0.725 0.725 
47 1 2.26 2.259 2.26 
48 1 1.551 1.55 1.55 
19 1 4.546 4.545 6.226 
20 1 3.013 3.013 7.764 
21 1 3.721 3.721 7.053 
31 1 0.668 0.667 10.103 
32 1 2.187 2.187 8.589 
33 1 1.476 1.475 9.298 
16 1 4.546 6.225 4.546 
17 1 3.013 7.765 3.013 
18 1 3.721 7.053 3.722 
25 1 0.668 10.103 0.668 
26 1 2.188 8.589 2.188 
27 1 1.476 9.298 1.476 
4 1 4.608 6.169 6.169 
5 1 3.086 7.684 7.684 
6 1 3.799 6.974 6.974 
37 1 0.729 10.046 10.046 
38 1 2.259 8.509 8.508 
39 1 1.552 9.219 9.219 
13 1 6.225 4.546 4.546 
14 1 7.764 3.013 3.013 
15 1 7.053 3.721 3.722 
28 1 10.102 0.667 0.668 
29 1 8.589 2.187 2.188 
30 1 9.298 1.475 1.476 
49 2 5.598 4.447 3.347 
50 3 5.598 4.447 2.371 
1 1 6.168 4.608 6.169 
2 1 7.684 3.086 7.684 
3 1 6.974 3.799 6.974 
40 1 10.045 0.728 10.046 
41 1 8.508 2.259 8.508 
42 1 9.218 1.551 9.218 
7 1 6.169 6.169 4.608 
8 1 7.684 7.684 3.086 
9 1 6.974 6.974 3.799 
43 1 10.046 10.047 0.729 
44 1 8.508 8.509 2.259 
45 1 9.219 9.219 1.552 
22 1 6.229 6.229 6.229 
23 1 7.764 7.765 7.765 
24 1 7.055 7.056 7.055 
34 1 10.108 10.108 10.107 
35 1 8.59 8.59 8.59 
36 1 9.301 9.301 9.3 
ITEM: TIMESTEP
10
ITEM: NUMBER OF ATOMS
50
ITEM: BOX BOUNDS pp pp pp
0.0000000000000000e+00 1.1000000000000000e+01
0.0000000000000000e+00 1.1002000000000001e+01
0.0000000000000000e+00 1.1000000000000000e+01
ITEM: ATOMS id type x y z 
10 1 4.50203 4.60905 4.65052 
11 1 3.07992 3.07192 3.07423 
12 1 3.74828 3.78766 3.81344 
46 1 0.737699 0.733792 0.736852 
47 1 2.26886 2.26674 2.26781 
48 1 1.56415 1.563 1.56238 
19 1 4.5251 4.52874 6.23194 
20 1 3.00307 3.00324 7.77587 
21 1 3.70345 3.70326 7.06704 
31 1 0.674978 0.672896 10.098 
32 1 2.18479 2.1857 8.59029 
33 1 1.47894 1.47622 9.29715 
16 1 4.53497 6.22115 4.53531 
17 1 3.0057 7.77357 3.00655 
18 1 3.70802 7.06289 3.70656 
25 1 0.675427 10.0985 0.674078 
26 1 2.18975 8.5859 2.19069 
27 1 1.48413 9.29295 1.48254 
4 1 4.59614 6.19282 6.17948 
5 1 3.07757 7.68831 7.6919 
6 1 3.79181 6.99021 6.98177 
37 1 0.738097 10.0352 10.037 
38 1 2.26709 8.50082 8.50004 
39 1 1.56421 9.20652 9.20716 
13 1 6.24449 4.54085 4.59107 
14 1 7.79008 2.99104 2.99827 
15 1 7.12225 3.68696 3.74973 
28 1 10.0999 0.672233 0.672741 
29 1 8.59458 2.17958 2.17966 
30 1 9.30584 1.46991 1.47037 
49 2 5.63281 4.46727 3.22074 
50 3 5.56116 4.45242 2.29045 
1 1 6.18654 4.59593 6.22225 
2 1 7.69778 3.06656 7.69817 
3 1 6.99576 3.78921 6.99305 
40 1 10.0331 0.737674 10.0328 
41 1 8.49932 2.26661 8.49959 
42 1 9.20858 1.56172 9.2089 
7 1 6.18675 6.22293 4.60193 
8 1 7.6985 7.69127 3.06868 
9 1 6.98484 6.99834 3.79228 
43 1 10.0357 10.0339 0.739037 
44 1 8.49895 8.50048 2.26744 
45 1 9.2093 9.20778 1.56314 
22 1 6.23705 6.24095 6.23943 
23 1 7.77149 7.77339 7.77438 
24 1 7.06862 7.06768 7.0648 
34 1 10.1009 10.1003 10.0988 
35 1 8.58488 8.58593 8.58611 
36 1 9.29461 9.29297 9.29154 
ITEM: TIMESTEP
20
ITEM: NUMBER OF ATOMS
50
ITEM: BOX BOUNDS pp pp pp
0.0000000000000000e+00 1.1000000000000000e+01
0.0000000000000000e+00 1.1002000000000001e+01
0.0000000000000000e+00 1.1000000000000000e+01
ITEM: ATOMS id type x y z 
10 1 4.49929 4.61664 4.67244 
11 1 3.07409 3.07052 3.08637 
12 1 3.72226 3.79907 3.83075 
46 1 0.744002 0.733171 0.737272 
47 1 2.27238 2.26608 2.26713 
48 1 1.56765 1.55848 1.56412 
19 1 4.50273 4.54228 6.2491 
20 1 2.99726 2.99233 7.78095 
21 1 3.69133 3.7034 7.08172 
31 1 0.682476 0.668701 10.0974 
32 1 2.18467 2.18464 8.59422 
33 1 1.47484 1.47183 9.2954 
16 1 4.53627 6.21758 4.53834 
17 1 3.00592 7.77567 3.00293 
18 1 3.70277 7.0624 3.70794 
25 1 0.685467 10.0938 0.675265 
26 1 2.19504 8.58836 2.19259 
27 1 1.47871 9.2848 1.48266 
4 1 4.59318 6.19512 6.17694 
5 1 3.07886 7.69083 7.69124 
6 1 3.78959 6.98832 6.98123 
37 1 0.739596 10.0321 10.0364 
38 1 2.26819 8.49978 8.50001 
39 1 1.56415 9.20504 9.2065 
13 1 6.32681 4.51797 4.6796 
14 1 7.7907 3.00204 3.02131 
15 1 7.14288 3.69133 3.82472 
28 1 10.1107 0.669523 0.67449 
29 1 8.5966 2.18477 2.18234 
30 1 9.28878 1.46753 1.46831 
49 2 5.61972 4.48732 3.0223 
50 3 5.50239 4.46008 2.14046 
1 1 6.18212 4.60008 6.23924 
2 1 7.71741 3.05785 7.69795 
3 1 6.98738 3.781 7.02688 
40 1 10.0372 0.732569 10.0314 
41 1 8.50779 2.25975 8.50819 
42 1 9.21481 1.54959 9.21265 
7 1 6.17864 6.20608 4.61375 
8 1 7.70382 7.69238 3.06484 
9 1 6.98325 7.00925 3.78983 
43 1 10.0414 10.0288 0.736945 
44 1 8.50504 8.50253 2.26553 
45 1 9.20871 9.20991 1.55496 
22 1 6.22598 6.27228 6.24604 
23 1 7.78274 7.77792 7.77716 
24 1 7.06267 7.07623 7.07502 
34 1 10.1024 10.0873 10.0894 
35 1 8.5887 8.58517 8.58335 
36 1 9.28859 9.29486 9.29844 
ITEM: TIMESTEP
30
ITEM: NUMBER OF ATOMS
50
ITEM: BOX BOUNDS pp pp pp
0.0000000000000000e+00 1.1000000000000000e+01
0.0000000000000000e+00 1.1002000000000001e+01
0.0000000000000000e+00 1.1000000000000000e+01
ITEM: ATOMS id type x y z 
10 1 4.54208 4.60907 4.66009 
11 1 3.06696 3.08726 3.10275 
12 1 3.74109 3.79475 3.84355 
46 1 0.737697 0.726626 0.740185 
47 1 2.27536 2.26442 2.27352 
48 1 1.57377 1.56395 1.55861 
19 1 4.50643 4.54855 6.25879 
20 1 2.99363 2.98617 7.79075 
21 1 3.68264 3.70496 7.0788 
31 1 0.681065 0.662682 10.1026 
32 1 2.17648 2.18038 8.58756 
33 1 1.48695 1.47194 9.31284 
16 1 4.5457 6.21447 4.52548 
17 1 3.00451 7.77347 3.008 
18 1 3.71212 7.05855 3.7046 
25 1 0.679857 10.0945 0.675374 
26 1 2.18781 8.58149 2.19226 
27 1 1.49263 9.29853 1.48192 
4 1 4.59407 6.19493 6.1784 
5 1 3.07805 7.6902 7.69063 
6 1 3.79161 6.99045 6.97931 
37 1 0.744398 10.0276 10.036 
38 1 2.2703 8.49753 8.49754 
39 1 1.56538 9.2036 9.20669 
13 1 6.31051 4.53442 4.66824 
14 1 7.80155 2.99874 3.03735 
15 1 7.1717 3.67397 3.83564 
28 1 10.1026 0.672713 0.684909 
29 1 8.57445 2.19129 2.18692 
30 1 9.29425 1.48704 1.48875 
49 2 5.59617 4.50342 2.96376 
50 3 5.4812 4.46804 2.05399 
1 1 6.16955 4.6091 6.24904 
2 1 7.70263 3.06479 7.70102 
3 1 6.99252 3.7915 7.01488 
40 1 10.04 0.723791 10.0398 
41 1 8.50744 2.25307 8.50485 
42 1 9.21988 1.55771 9.21778 
7 1 6.18361 6.17773 4.612 
8 1 7.68294 7.68648 3.0829 
9 1 6.98081 6.98169 3.79939 
43 1 10.0411 10.035 0.735174 
44 1 8.49566 8.4975 2.26572 
45 1 9.2122 9.20222 1.56601 
22 1 6.22002 6.27943 6.24775 
23 1 7.78462 7.77745 7.78392 
24 1 7.06369 7.08832 7.06971 
34 1 10.1002 10.0869 10.0994 
35 1 8.58143 8.58819 8.58973 
36 1 9.30668 9.28839 9.28906 
ITEM: TIMESTEP
40
ITEM: NUMBER OF ATOMS
50
ITEM: BOX BOUNDS pp pp pp
0.0000000000000000e+00 1.1000000000000000e+01
0.0000000000000000e+00 1.1002000000000001e+01
0.0000000000000000e+00 1.1000000000000000e+01
ITEM: ATOMS id type x y z 
10 1 4.55741 4.6026 4.65976 
11 1 3.06303 3.08777 3.11471 
12 1 3.7504 3.79466 3.84369 
46 1 0.740662 0.731029 0.744253 
47 1 2.27996 2.27171 2.27275 
48 1 1.57319 1.56352 1.56931 
19 1 4.50714 4.55022 6.26179 
20 1 2.98926 2.98747 7.7874 
21 1 3.6881 3.70639 7.08437 
31 1 0.68107 0.663034 10.1116 
32 1 2.18038 2.17828 8.5953 
33 1 1.47651 1.46814 9.30488 
16 1 4.54746 6.21242 4.5235 
17 1 3.00546 7.77239 3.00807 
18 1 3.71279 7.05581 3.70388 
25 1 0.678604 10.0966 0.678954 
26 1 2.19297 8.58494 2.19261 
27 1 1.48507 9.29155 1.48425 
4 1 4.59366 6.19528 6.17159 
5 1 3.07975 7.68955 7.68891 
6 1 3.7911 6.9897 6.97605 
37 1 0.743409 10.0268 10.0397 
38 1 2.27041 8.49721 8.4964 
39 1 1.56644 9.20268 9.2087 
13 1 6.30351 4.52441 4.66117 
14 1 7.80555 2.99713 3.05129 
15 1 7.1752 3.67513 3.84894 
28 1 10.1029 0.670136 0.686682 
29 1 8.57905 2.19303 2.18592 
30 1 9.29032 1.4822 1.48587 
49 2 5.58615 4.51368 2.91227 
50 3 5.47129 4.47348 2.01168 
1 1 6.17015 4.61703 6.24925 
2 1 7.70338 3.06814 7.7007 
3 1 6.98429 3.79232 7.02133 
40 1 10.0406 0.727693 10.0466 
41 1 8.51059 2.25537 8.50535 
42 1 9.21684 1.55097 9.2166 
7 1 6.18372 6.16926 4.61217 
8 1 7.68294 7.68739 3.08376 
9 1 6.9812 6.97826 3.79675 
43 1 10.0411 10.0339 0.742355 
44 1 8.49655 8.49539 2.26796 
45 1 9.20757 9.20326 1.56557 
22 1 6.21932 6.27826 6.25043 
23 1 7.78486 7.77981 7.78126 
24 1 7.06048 7.08864 7.07473 
34 1 10.1051 10.0889 10.1044 
35 1 8.59045 8.58908 8.58893 
36 1 9.30059 9.29239 9.29967 
ITEM: TIMESTEP
50
ITEM: NUMBER OF ATOMS
50
ITEM: BOX BOUNDS pp pp pp
0.0000000000000000e+00 1.1000000000000000e+01
0.0000000000000000e+00 1.1002000000000001e+01
0.0000000000000000e+00 1.1000000000000000e+01
ITEM: ATOMS id type x y z 
10 1 4.59509 4.58389 4.65329 
11 1 3.05815 3.08992 3.13523 
12 1 3.7688 3.7864 3.85122 
46 1 0.738644 0.732623 0.756718 
47 1 2.28211 2.28127 2.28264 
48 1 1.57533 1.56917 1.57918 
19 1 4.51848 4.55356 6.26982 
20 1 2.98291 2.98801 7.78538 
21 1 3.69002 3.70959 7.09412 
31 1 0.677293 0.660783 10.1272 
32 1 2.1809 2.17507 8.59534 
33 1 1.47687 1.46842 9.30799 
16 1 4.55315 6.20704 4.51826 
17 1 3.00742 7.7682 3.00891 
18 1 3.71973 7.04959 3.70009 
25 1 0.678395 10.0974 0.68567 
26 1 2.19699 8.58201 2.19079 
27 1 1.48069 9.29431 1.49677 
4 1 4.59419 6.19379 6.16257 
5 1 3.08467 7.69173 7.6869 
6 1 3.78154 6.98824 6.96468 
37 1 0.746751 10.0279 10.0503 
38 1 2.26763 8.4984 8.4973 
39 1 1.56937 9.20185 9.21521 
13 1 6.28373 4.51503 4.65425 
14 1 7.827 2.98724 3.08175 
15 1 7.17734 3.66998 3.86257 
28 1 10.0993 0.668319 0.692065 
29 1 8.57488 2.19788 2.18999 
30 1 9.29291 1.48713 1.49608 
49 2 5.56361 4.54013 2.79775 
50 3 5.45023 4.48789 1.89373 
1 1 6.16207 4.62837 6.25282 
2 1 7.69351 3.07481 7.70887 
3 1 6.98461 3.79905 7.02038 
40 1 10.0399 0.732392 10.0574 
41 1 8.51058 2.25501 8.50048 
42 1 9.2146 1.55552 9.2189 
7 1 6.18638 6.14747 4.61265 
8 1 7.67997 7.6813 3.08633 
9 1 6.98183 6.96881 3.79884 
43 1 10.0386 10.0367 0.753984 
44 1 8.48801 8.49195 2.27124 
45 1 9.20636 9.19942 1.57668 
22 1 6.21903 6.27075 6.25087 
23 1 7.78378 7.78942 7.7799 
24 1 7.06833 7.08713 7.07844 
34 1 10.1103 10.0952 10.1211 
35 1 8.59764 8.59047 8.58383 
36 1 9.28837 9.28857 9.31739 
ITEM: TIMESTEP
60
ITEM: NUMBER OF ATOMS
50
ITEM: BOX BOUNDS pp pp pp
0.0000000000000000e+00 1.1000000000000000e+01
0.0000000000000000e+00 1.1002000000000001e+01
0.0000000000000000e+00 1.1000000000000000e+01
ITEM: ATOMS id type x y z 
10 1 4.598 4.58302 4.6549 
11 1 3.05705 3.08919 3.13851 
12 1 3.77254 3.78562 3.84957 
46 1 0.739918 0.73303 0.757391 
47 1 2.28063 2.28008 2.28181 
48 1 1.57264 1.56914 1.58129 
19 1 4.5158 4.55369 6.27215 
20 1 2.98505 2.99051 7.78624 
21 1 3.6894 3.70983 7.08954 
31 1 0.678101 0.661902 10.1255 
32 1 2.17783 2.17261 8.59635 
33 1 1.47671 1.46693 9.31214 
16 1 4.55425 6.20514 4.51834 
17 1 3.0098 7.76606 3.00823 
18 1 3.71884 7.04943 3.70148 
25 1 0.677265 10.1003 0.688286 
26 1 2.19545 8.58228 2.19543 
27 1 1.48576 9.29148 1.49208 
4 1 4.59154 6.1925 6.15824 
5 1 3.07999 7.69195 7.68378 
6 1 3.78753 6.99045 6.96975 
37 1 0.744512 10.0288 10.0536 
38 1 2.26797 8.49913 8.49981 
39 1 1.5665 9.20347 9.21461 
13 1 6.28444 4.51166 4.64841 
14 1 7.82601 2.98766 3.08764 
15 1 7.17331 3.67202 3.86382 
28 1 10.1016 0.671714 0.694157 
29 1 8.57968 2.19776 2.19223 
30 1 9.29001 1.48516 1.49281 
49 2 5.56176 4.54379 2.78389 
50 3 5.4485 4.4898 1.87863 
1 1 6.16512 4.62683 6.25176 
2 1 7.69561 3.07484 7.70718 
3 1 6.98045 3.80085 7.02673 
40 1 10.0402 0.731251 10.0586 
41 1 8.51243 2.25372 8.50323 
42 1 9.21587 1.55275 9.21934 
7 1 6.18677 6.14857 4.61272 
8 1 7.67766 7.67957 3.08837 
9 1 6.98138 6.9642 3.79954 
43 1 10.0401 10.0355 0.755809 
44 1 8.49017 8.49151 2.27241 
45 1 9.2029 9.2015 1.57496 
22 1 6.22145 6.27258 6.25235 
23 1 7.78333 7.78662 7.77841 
24 1 7.06344 7.08864 7.07505 
34 1 10.1066 10.0939 10.1231 
35 1 8.59667 8.59246 8.59227 
36 1 9.29937 9.29359 9.31164 
ITEM: TIMESTEP
67
ITEM: NUMBER OF ATOMS
50
ITEM: BOX BOUNDS pp pp pp
0.0000000000000000e+00 1.1000000000000000e+01
0.0000000000000000e+00 1.1002000000000001e+01
0.0000000000000000e+00 1.1000000000000000e+01
ITEM: ATOMS id type x y z 
10 1 4.5987 4.58216 4.65516 
11 1 3.05676 3.08897 3.13928 
12 1 3.77361 3.78535 3.8492 
46 1 0.739952 0.733125 0.758026 
47 1 2.28052 2.28022 2.28269 
48 1 1.57254 1.56953 1.58127 
19 1 4.51565 4.55384 6.27209 
20 1 2.98493 2.99072 7.78626 
21 1 3.68947 3.70978 7.08962 
31 1 0.67851 0.662575 10.1262 
32 1 2.17799 2.17339 8.59744 
33 1 1.4763 1.46524 9.31036 
16 1 4.55423 6.20486 4.5183 
17 1 3.00986 7.7659 3.00787 
18 1 3.71903 7.04922 3.70165 
25 1 0.677482 10.1001 0.688737 
26 1 2.19531 8.58219 2.19598 
27 1 1.48631 9.29138 1.49166 
4 1 4.59184 6.19283 6.15851 
5 1 3.08 7.69244 7.68353 
6 1 3.787 6.99004 6.96986 
37 1 0.743835 10.0291 10.0535 
38 1 2.26763 8.49958 8.49954 
39 1 1.56658 9.20328 9.21596 
13 1 6.28397 4.51137 4.64811 
14 1 7.82664 2.98739 3.0888 
15 1 7.17255 3.67191 3.86352 
28 1 10.1013 0.67181 0.69447 
29 1 8.57972 2.19746 2.19291 
30 1 9.2905 1.4859 1.49283 
49 2 5.5612 4.54486 2.7799 
50 3 5.44803 4.49036 1.87438 
1 1 6.16551 4.62709 6.25182 
2 1 7.69593 3.07525 7.70753 
3 1 6.9798 3.80045 7.02717 
40 1 10.0402 0.731059 10.0588 
41 1 8.51262 2.25374 8.50324 
42 1 9.21578 1.55245 9.21969 
7 1 6.18712 6.14816 4.61279 
8 1 7.67744 7.67895 3.08821 
9 1 6.98151 6.96412 3.80016 
43 1 10.0399 10.0355 0.756211 
44 1 8.49002 8.49142 2.27248 
45 1 9.20271 9.20143 1.57549 
22 1 6.22143 6.27234 6.25234 
23 1 7.78325 7.7865 7.77845 
24 1 7.06333 7.08936 7.07488 
34 1 10.106 10.0936 10.1238 
35 1 8.59591 8.59245 8.59397 
36 1 9.30167 9.29422 9.30937 
ITEM: TIMESTEP
68
ITEM: NUMBER OF ATOMS
50
ITEM: BOX BOUNDS pp pp pp
0.0000000000000000e+00 1.1000000000000000e+01
0.0000000000000000e+00 1.1002000000000001e+01
0.0000000000000000e+00 1.1000000000000000e+01
ITEM: ATOMS id type x y z 
10 1 4.5987 4.58216 4.65516 
11 1 3.05676 3.08897 3.13928 
12 1 3.77361 3.78535 3.8492 
46 1 0.739952 0.733125 0.758026 
47 1 2.28052 2.28022 2.28269 
48 1 1.57254 1.56953 1.58127 
50 3 5.44803 4.49036 1.87438 
19 1 4.51565 4.55384 6.27209 
20 1 2.98493 2.99072 7.78626 
21 1 3.68947 3.70978 7.08962 
31 1 0.67851 0.662575 10.1262 
32 1 2.17799 2.17339 8.59744 
33 1 1.4763 1.46524 9.31036 
16 1 4.55423 6.20486 4.5183 
17 1 3.00986 7.7659 3.00787 
18 1 3.71903 7.04922 3.70165 
25 1 0.677482 10.1001 0.688737 
26 1 2.19531 8.58219 2.19598 
27 1 1.48631 9.29138 1.49166 
4 1 4.59184 6.19283 6.15851 
5 1 3.08 7.69244 7.68353 
6 1 3.787 6.99004 6.96986 
37 1 0.743835 10.0291 10.0535 
38 1 2.26763 8.49958 8.49954 
39 1 1.56658 9.20328 9.21596 
13 1 6.28397 4.51137 4.64811 
14 1 7.82664 2.98739 3.0888 
15 1 7.17255 3.67191 3.86352 
28 1 10.1013 0.67181 0.69447 
29 1 8.57972 2.19746 2.19291 
30 1 9.2905 1.4859 1.49283 
49 2 5.5612 4.54486 2.7799 
1 1 6.16551 4.62709 6.25182 
2 1 7.69593 3.07525 7.70753 
3 1 6.9798 3.80045 7.02717 
40 1 10.0402 0.731059 10.0588 
41 1 8.51262 2.25374 8.50324 
42 1 9.21578 1.55245 9.21969 
7 1 6.18712 6.14816 4.61279 
8 1 7.67744 7.67895 3.08821 
9 1 6.98151 6.96412 3.80016 
43 1 10.0399 10.0355 0.756211 
44 1 8.49002 8.49142 2.27248 
45 1 9.20271 9.20143 1.57549 
22 1 6.22143 6.27234 6.25234 
23 1 7.78325 7.7865 7.77845 
24 1 7.06333 7.08936 7.07488 
34 1 10.106 10.0936 10.1238 
35 1 8.59591 8.59245 8.59397 
36 1 9.30167 9.29422 9.30937 
ITEM: TIMESTEP
70
ITEM: NUMBER OF ATOMS
50
ITEM: BOX BOUNDS pp pp pp
-9.2608373241637632e-04 1.1000926083732416e+01
-9.2317042105177142e-04 1.1002923170421052e+01
-1.0999999999999998e-03 1.1001100000000001e+01
ITEM: ATOMS id type x y z 
10 1 4.59855 4.582 4.65499 
11 1 3.05634 3.08856 3.13881 
12 1 3.77332 3.78506 3.84887 
46 1 0.73915 0.732325 0.757077 
47 1 2.27997 2.27968 2.28204 
48 1 1.57187 1.56887 1.58049 
50 3 5.44802 4.49019 1.87365 
19 1 4.51548 4.55368 6.27225 
20 1 2.98451 2.99029 7.78672 
21 1 3.68916 3.70948 7.08994 
31 1 0.677697 0.661761 10.1271 
32 1 2.17743 2.17283 8.59806 
33 1 1.47562 1.46457 9.31113 
16 1 4.55407 6.20497 4.51811 
17 1 3.00944 7.76628 3.00737 
18 1 3.71873 7.04948 3.70129 
25 1 0.67667 10.1009 0.687772 
26 1 2.19475 8.5827 2.19531 
27 1 1.48563 9.29202 1.49086 
4 1 4.59169 6.19294 6.15864 
5 1 3.07959 7.69281 7.68397 
6 1 3.78671 6.9903 6.97016 
37 1 0.743034 10.0299 10.0544 
38 1 2.26708 8.50009 8.50014 
39 1 1.56592 9.2039 9.21671 
13 1 6.2841 4.5112 4.64794 
14 1 7.82703 2.98696 3.08831 
15 1 7.17283 3.67161 3.86319 
28 1 10.1021 0.671001 0.693507 
29 1 8.58024 2.19691 2.19225 
30 1 9.29113 1.48522 1.49203 
49 2 5.56121 4.5447 2.77936 
1 1 6.16562 4.62694 6.25196 
2 1 7.6963 3.07484 7.70797 
3 1 6.98005 3.80017 7.02747 
40 1 10.0409 0.730257 10.0597 
41 1 8.51313 2.2532 8.50384 
42 1 9.21641 1.55178 9.22043 
7 1 6.18723 6.14827 4.61261 
8 1 7.6778 7.67932 3.08772 
9 1 6.98175 6.96437 3.79982 
43 1 10.0406 10.0363 0.755263 
44 1 8.49053 8.49193 2.27184 
45 1 9.20334 9.20205 1.5747 
22 1 6.22155 6.27247 6.25249 
23 1 7.78364 7.78689 7.7789 
24 1 7.06359 7.08962 7.0752 
34 1 10.1067 10.0944 10.1247 
35 1 8.59643 8.59297 8.59459 
36 1 9.30232 9.29485 9.31013 
ITEM: TIMESTEP
80
ITEM: NUMBER OF ATOMS
50
ITEM: BOX BOUNDS pp pp pp
-1.9492557116098166e-03 1.1001949255711610e+01
-1.6210023210093440e-03 1.1003621002321008e+01
-6.6000000000000000e-03 1.1006600000000006e+01
ITEM: ATOMS id type x y z 
10 1 4.59857 4.58207 4.65435 
11 1 3.05593 3.0883 3.13653 
12 1 3.77299 3.78477 3.84715 
46 1 0.738107 0.731602 0.752187 
47 1 2.27927 2.27923 2.27876 
48 1 1.57106 1.56823 1.57652 
50 3 5.44799 4.49008 1.86983 
19 1 4.51547 4.55367 6.27285 
20 1 2.98415 2.99003 7.78895 
21 1 3.68886 3.70941 7.09141 
31 1 0.676601 0.660908 10.1319 
32 1 2.17674 2.1723 8.60115 
33 1 1.47497 1.46421 9.315 
16 1 4.55404 6.20493 4.51733 
17 1 3.00906 7.7665 3.00499 
18 1 3.71852 7.0495 3.69955 
25 1 0.675627 10.1017 0.682749 
26 1 2.19413 8.58314 2.19193 
27 1 1.48488 9.29243 1.487 
4 1 4.59166 6.19279 6.15913 
5 1 3.07913 7.69298 7.6861 
6 1 3.78643 6.99068 6.97167 
37 1 0.741993 10.0306 10.0592 
38 1 2.2664 8.50055 8.50327 
39 1 1.56506 9.2045 9.22047 
13 1 6.28409 4.51123 4.64718 
14 1 7.82743 2.98669 3.08602 
15 1 7.17295 3.67151 3.86165 
28 1 10.1032 0.670268 0.688497 
29 1 8.58093 2.19651 2.1889 
30 1 9.29168 1.48464 1.48813 
49 2 5.56122 4.54463 2.77652 
1 1 6.16553 4.62695 6.25249 
2 1 7.69659 3.07455 7.71016 
3 1 6.98051 3.79998 7.02904 
40 1 10.0419 0.729474 10.0644 
41 1 8.51373 2.25269 8.50695 
42 1 9.21728 1.5512 9.22423 
7 1 6.18717 6.14815 4.61192 
8 1 7.67816 7.67953 3.08537 
9 1 6.98208 6.96459 3.79807 
43 1 10.0416 10.037 0.750402 
44 1 8.49115 8.49237 2.2686 
45 1 9.20413 9.20263 1.57059 
22 1 6.22154 6.27243 6.25307 
23 1 7.78399 7.78717 7.78112 
24 1 7.06378 7.08966 7.07669 
34 1 10.1078 10.0951 10.1296 
35 1 8.59701 8.59341 8.59781 
36 1 9.30308 9.2953 9.31379 
ITEM: TIMESTEP
90
ITEM: NUMBER OF ATOMS
50
ITEM: BOX BOUNDS pp pp pp
-7.1559153601482564e-04 1.1000715591536013e+01
1.5328756219350092e-04 1.1001846712437805e+01
-1.2100000000000001e-02 1.1012100000000011e+01
ITEM: ATOMS id type x y z 
10 1 4.59909 4.58265 4.65384 
11 1 3.05655 3.08915 3.13431 
12 1 3.77335 3.7852 3.84538 
46 1 0.738924 0.732945 0.747195 
47 1 2.27979 2.28015 2.27541 
48 1 1.57183 1.56931 1.57255 
50 3 5.44797 4.49045 1.86589 
19 1 4.51596 4.55417 6.27334 
20 1 2.98491 2.99099 7.79111 
21 1 3.6893 3.71015 7.09283 
31 1 0.677366 0.662087 10.1367 
32 1 2.17738 2.17321 8.60423 
33 1 1.47602 1.46577 9.31891 
16 1 4.55448 6.20448 4.51667 
17 1 3.00982 7.76559 3.00269 
18 1 3.71907 7.0488 3.69783 
25 1 0.676423 10.1005 0.677647 
26 1 2.19479 8.58222 2.18856 
27 1 1.48589 9.29111 1.48311 
4 1 4.59208 6.19219 6.15951 
5 1 3.07963 7.69211 7.6882 
6 1 3.78688 6.99051 6.97322 
37 1 0.742808 10.0293 10.0641 
38 1 2.26696 8.49976 8.50654 
39 1 1.56577 9.20348 9.22422 
13 1 6.28364 4.51182 4.6465 
14 1 7.82681 2.98764 3.08388 
15 1 7.17229 3.67228 3.86013 
28 1 10.1025 0.671636 0.68335 
29 1 8.58041 2.19761 2.18553 
30 1 9.29061 1.48583 1.48432 
49 2 5.56121 4.54502 2.77361 
1 1 6.16505 4.62744 6.25284 
2 1 7.69592 3.07537 7.71238 
3 1 6.98045 3.80054 7.03058 
40 1 10.0411 0.730732 10.0693 
41 1 8.51319 2.25353 8.51017 
42 1 9.21667 1.55239 9.22804 
7 1 6.18672 6.14758 4.61136 
8 1 7.67759 7.67872 3.08304 
9 1 6.98183 6.96417 3.79629 
43 1 10.0409 10.0358 0.745445 
44 1 8.49063 8.49155 2.26528 
45 1 9.20341 9.20159 1.56647 
22 1 6.22114 6.27195 6.25354 
23 1 7.78331 7.78636 7.78323 
24 1 7.06332 7.08893 7.07818 
34 1 10.107 10.094 10.1345 
35 1 8.5964 8.59249 8.60102 
36 1 9.30219 9.29401 9.31749 
ITEM: TIMESTEP
100
ITEM: NUMBER OF ATOMS
50
ITEM: BOX BOUNDS pp pp pp
4.9496574320429107e-04 1.0999505034256794e+01
1.8845098321549048e-03 1.1000115490167842e+01
-1.7599999999999998e-02 1.1017600000000016e+01
ITEM: ATOMS id type x y z 
10 1 4.59965 4.58321 4.65333 
11 1 3.05716 3.08997 3.13209 
12 1 3.77372 3.78562 3.8436 
46 1 0.739716 0.734237 0.742182 
47 1 2.28026 2.28099 2.27201 
48 1 1.5726 1.57041 1.56863 
50 3 5.44795 4.49082 1.86194 
19 1 4.51643 4.55468 6.27379 
20 1 2.98566 2.99201 7.79321 
21 1 3.68978 3.71081 7.09432 
31 1 0.67811 0.663221 10.1416 
32 1 2.178 2.17408 8.60729 
33 1 1.47706 1.46732 9.32285 
16 1 4.55494 6.20399 4.516 
17 1 3.01062 7.76462 3.00039 
18 1 3.71955 7.0482 3.69615 
25 1 0.677195 10.0993 0.672541 
26 1 2.19545 8.58132 2.18519 
27 1 1.48688 9.28981 1.47922 
4 1 4.59255 6.19165 6.15987 
5 1 3.08018 7.69132 7.69029 
6 1 3.78723 6.99024 6.97481 
37 1 0.743597 10.0281 10.069 
38 1 2.26746 8.49903 8.50985 
39 1 1.56649 9.20245 9.22792 
13 1 6.28317 4.51242 4.64584 
14 1 7.82613 2.98865 3.08182 
15 1 7.17164 3.67301 3.85855 
28 1 10.1018 0.672935 0.678171 
29 1 8.57984 2.19866 2.18214 
30 1 9.28967 1.48705 1.48058 
49 2 5.5612 4.54541 2.77066 
1 1 6.16459 4.62797 6.25317 
2 1 7.69529 3.07622 7.71464 
3 1 6.98036 3.80098 7.03205 
40 1 10.0403 0.731965 10.0742 
41 1 8.51276 2.25433 8.51341 
42 1 9.21594 1.55353 9.23187 
7 1 6.18627 6.14698 4.61081 
8 1 7.67702 7.67792 3.08072 
9 1 6.9816 6.96377 3.7945 
43 1 10.0401 10.0346 0.740452 
44 1 8.49016 8.4908 2.26188 
45 1 9.20271 9.20053 1.56244 
22 1 6.22073 6.27147 6.25397 
23 1 7.78258 7.78553 7.78529 
24 1 7.06292 7.08824 7.07971 
34 1 10.1063 10.0928 10.1394 
35 1 8.59582 8.59161 8.60422 
36 1 9.30128 9.29274 9.32122 
ITEM: TIMESTEP
110
ITEM: NUMBER OF ATOMS
50
ITEM: BOX BOUNDS pp pp pp
1.6272154675405755e-03 1.0998372784532458e+01
3.4881844170083151e-03 1.0998511815582988e+01
-2.3099999999999982e-02 1.1023100000000021e+01
ITEM: ATOMS id type x y z 
10 1 4.60024 4.58375 4.65286 
11 1 3.05774 3.09074 3.12988 
12 1 3.77406 3.78598 3.84182 
46 1 0.740431 0.735396 0.737139 
47 1 2.28065 2.28172 2.26857 
48 1 1.57331 1.57144 1.56473 
50 3 5.44794 4.49116 1.85797 
19 1 4.51691 4.55519 6.2742 
20 1 2.98642 2.99301 7.79528 
21 1 3.69022 3.71139 7.09581 
31 1 0.678779 0.66423 10.1464 
32 1 2.17857 2.17485 8.61034 
33 1 1.47806 1.4688 9.32682 
16 1 4.55539 6.2035 4.51537 
17 1 3.01141 7.76367 2.99814 
18 1 3.72 7.04765 3.69443 
25 1 0.677903 10.0983 0.667432 
26 1 2.19608 8.58051 2.18183 
27 1 1.4878 9.28856 1.47533 
4 1 4.59305 6.19115 6.16022 
5 1 3.08073 7.69063 7.69236 
6 1 3.78745 6.98992 6.97639 
37 1 0.744308 10.027 10.0739 
38 1 2.26789 8.4984 8.51321 
39 1 1.56717 9.2015 9.23159 
13 1 6.28268 4.51302 4.6452 
14 1 7.82544 2.98966 3.07985 
15 1 7.171 3.67367 3.85691 
28 1 10.1012 0.674057 0.673017 
29 1 8.5793 2.19956 2.17881 
30 1 9.28881 1.48831 1.47677 
49 2 5.56119 4.54579 2.76766 
1 1 6.16419 4.62849 6.25337 
2 1 7.69474 3.07703 7.71685 
3 1 6.98018 3.80136 7.03363 
40 1 10.0396 0.733074 10.079 
41 1 8.51241 2.25501 8.5167 
42 1 9.21523 1.55461 9.23568 
7 1 6.18583 6.14635 4.61027 
8 1 7.67648 7.67716 3.0784 
9 1 6.98141 6.9634 3.79271 
43 1 10.0394 10.0336 0.735436 
44 1 8.48978 8.49016 2.25843 
45 1 9.20202 9.19955 1.55844 
22 1 6.22031 6.27098 6.25439 
23 1 7.78183 7.78472 7.78731 
24 1 7.06258 7.08761 7.08127 
34 1 10.1057 10.0918 10.1444 
35 1 8.59527 8.59082 8.60742 
36 1 9.30044 9.29152 9.32496 
ITEM: TIMESTEP
120
ITEM: NUMBER OF ATOMS
50
ITEM: BOX BOUNDS pp pp pp
2.6834257868200663e-03 1.0997316574213180e+01
5.0205443236232125e-03 1.0996979455676373e+01
-2.8599999999999966e-02 1.1028600000000026e+01
ITEM: ATOMS id type x y z 
10 1 4.60086 4.58427 4.65242 
11 1 3.05829 3.09148 3.12769 
12 1 3.77439 3.78631 3.84004 
46 1 0.741066 0.736469 0.732063 
47 1 2.28096 2.28236 2.26512 
48 1 1.57394 1.57245 1.56083 
50 3 5.44793 4.4915 1.85397 
19 1 4.51739 4.55571 6.27457 
20 1 2.98717 2.99402 7.79733 
21 1 3.69063 3.71195 7.0973 
31 1 0.679371 0.665165 10.1513 
32 1 2.17909 2.17557 8.61338 
33 1 1.47901 1.47026 9.33081 
16 1 4.55585 6.20299 4.51478 
17 1 3.01221 7.76271 2.99589 
18 1 3.72041 7.04714 3.69273 
25 1 0.678504 10.0974 0.662306 
26 1 2.19662 8.5797 2.17845 
27 1 1.48873 9.28743 1.47147 
4 1 4.59355 6.19064 6.16056 
5 1 3.08125 7.68997 7.69443 
6 1 3.78766 6.98964 6.97799 
37 1 0.744941 10.026 10.0789 
38 1 2.26826 8.49784 8.51661 
39 1 1.56778 9.20059 9.23524 
13 1 6.28217 4.51364 4.64459 
14 1 7.82474 2.99069 3.07795 
15 1 7.17037 3.67431 3.85524 
28 1 10.1006 0.675093 0.667863 
29 1 8.57882 2.2004 2.17552 
30 1 9.28799 1.48957 1.47294 
49 2 5.56118 4.54618 2.76459 
1 1 6.16378 4.62899 6.25351 
2 1 7.69423 3.07782 7.71906 
3 1 6.98002 3.80172 7.03521 
40 1 10.039 0.734104 10.084 
41 1 8.51213 2.25562 8.52001 
42 1 9.21457 1.55564 9.2395 
7 1 6.1854 6.1457 4.60979 
8 1 7.67596 7.67645 3.07611 
9 1 6.98125 6.963 3.79086 
43 1 10.0388 10.0326 0.730392 
44 1 8.48948 8.4896 2.25496 
45 1 9.20137 9.1986 1.55445 
22 1 6.2199 6.27046 6.25478 
23 1 7.78108 7.78389 7.78933 
24 1 7.06228 7.08707 7.08279 
34 1 10.1051 10.0908 10.1493 
35 1 8.59479 8.59005 8.61064 
36 1 9.29963 9.29038 9.32867 
ITEM: TIMESTEP
130
ITEM: NUMBER OF ATOMS
50
ITEM: BOX BOUNDS pp pp pp
3.6345679885711637e-03 1.0996365432011427e+01
6.4262925050223851e-03 1.0995573707494973e+01
-3.4099999999999971e-02 1.1034100000000031e+01
ITEM: ATOMS id type x y z 
10 1 4.6015 4.58477 4.652 
11 1 3.0588 3.09216 3.12551 
12 1 3.77469 3.78659 3.83824 
46 1 0.741592 0.737406 0.726945 
47 1 2.28119 2.2829 2.26165 
48 1 1.57448 1.57339 1.55695 
50 3 5.44792 4.49183 1.84993 
19 1 4.51788 4.55621 6.27487 
20 1 2.98789 2.995 7.79934 
21 1 3.69101 3.71247 7.0988 
31 1 0.679867 0.665998 10.1562 
32 1 2.17954 2.17621 8.61644 
33 1 1.47989 1.47163 9.33478 
16 1 4.5563 6.20248 4.51424 
17 1 3.01298 7.76178 2.99367 
18 1 3.72079 7.04665 3.69102 
25 1 0.67903 10.0966 0.657174 
26 1 2.19712 8.579 2.17509 
27 1 1.48954 9.2863 1.4676 
4 1 4.59405 6.19012 6.16091 
5 1 3.08173 7.68934 7.69651 
6 1 3.7878 6.98944 6.97955 
37 1 0.745453 10.0251 10.0839 
38 1 2.26853 8.49739 8.52 
39 1 1.56834 9.19973 9.23895 
13 1 6.28162 4.51427 4.64401 
14 1 7.82405 2.9917 3.07613 
15 1 7.16974 3.6749 3.85354 
28 1 10.1002 0.676001 0.6627 
29 1 8.57841 2.20116 2.17226 
30 1 9.2872 1.49078 1.46909 
49 2 5.56116 4.54656 2.76145 
1 1 6.16337 4.6295 6.2536 
2 1 7.69373 3.07859 7.72131 
3 1 6.97993 3.80199 7.03673 
40 1 10.0385 0.734993 10.0889 
41 1 8.51193 2.25612 8.52335 
42 1 9.214 1.55661 9.24333 
7 1 6.18497 6.145 4.6093 
8 1 7.67546 7.67575 3.07379 
9 1 6.98115 6.96269 3.78908 
43 1 10.0383 10.0318 0.725314 
44 1 8.48925 8.48915 2.25146 
45 1 9.20079 9.19771 1.55046 
22 1 6.2195 6.2699 6.25515 
23 1 7.78036 7.78305 7.79133 
24 1 7.06197 7.08663 7.08429 
34 1 10.1047 10.0899 10.1543 
35 1 8.5944 8.58937 8.61385 
36 1 9.29885 9.28931 9.33241 
ITEM: TIMESTEP
140
ITEM: NUMBER OF ATOMS
50
ITEM: BOX BOUNDS pp pp pp
4.2879719140702464e-03 1.0995712028085928e+01
7.4715958707966667e-03 1.0994528404129200e+01
-3.9599999999999941e-02 1.1039600000000036e+01
ITEM: ATOMS id type x y z 
10 1 4.60211 4.58518 4.65161 
11 1 3.05918 3.0927 3.12334 
12 1 3.77491 3.78673 3.83644 
46 1 0.74185 0.738016 0.721791 
47 1 2.28121 2.28319 2.25817 
48 1 1.57479 1.57409 1.55307 
50 3 5.44791 4.4921 1.84585 
19 1 4.51834 4.55667 6.27514 
20 1 2.98851 2.99584 7.80135 
21 1 3.69127 3.71286 7.10026 
31 1 0.680127 0.666604 10.1613 
32 1 2.17983 2.17673 8.61964 
33 1 1.48051 1.47255 9.33852 
16 1 4.55672 6.20198 4.51374 
17 1 3.01364 7.76096 2.99145 
18 1 3.72107 7.04627 3.68933 
25 1 0.679272 10.096 0.652024 
26 1 2.19743 8.57847 2.17172 
27 1 1.49019 9.28546 1.46375 
4 1 4.59451 6.18966 6.16122 
5 1 3.08208 7.68888 7.69857 
6 1 3.78783 6.9893 6.98116 
37 1 0.745656 10.0246 10.0889 
38 1 2.26858 8.49717 8.52336 
39 1 1.56874 9.19907 9.24279 
13 1 6.28108 4.51485 4.64346 
14 1 7.82346 2.99257 3.07437 
15 1 7.16919 3.67536 3.85182 
28 1 10.1 0.676609 0.657496 
29 1 8.57817 2.20171 2.169 
30 1 9.28662 1.49171 1.46531 
49 2 5.56113 4.5469 2.75821 
1 1 6.16301 4.62993 6.25361 
2 1 7.69335 3.0792 7.72355 
3 1 6.97991 3.80215 7.03829 
40 1 10.0383 0.735568 10.0939 
41 1 8.51193 2.2564 8.52671 
42 1 9.21361 1.55728 9.24716 
7 1 6.18459 6.14434 4.60885 
8 1 7.67507 7.67519 3.0715 
9 1 6.98114 6.96244 3.78726 
43 1 10.0381 10.0313 0.7202 
44 1 8.48922 8.4889 2.24794 
45 1 9.20039 9.19708 1.54647 
22 1 6.21913 6.26937 6.25548 
23 1 7.77975 7.78236 7.79331 
24 1 7.06175 7.08629 7.08581 
34 1 10.1045 10.0894 10.1593 
35 1 8.59415 8.58891 8.61709 
36 1 9.29832 9.28847 9.33612 
ITEM: TIMESTEP
150
ITEM: NUMBER OF ATOMS
50
ITEM: BOX BOUNDS pp pp pp
5.0924523628874223e-03 1.0994907547637110e+01
8.5796485061553004e-03 1.0993420351493841e+01
-4.4560506864129927e-02 1.1044560506864169e+01
ITEM: ATOMS id type x y z 
10 1 4.60276 4.5856 4.65131 
11 1 3.05965 3.09326 3.12142 
12 1 3.77518 3.78687 3.8348 
46 1 0.742188 0.738678 0.717099 
47 1 2.28126 2.28351 2.25506 
48 1 1.5753 1.57483 1.54952 
50 3 5.4479 4.4924 1.84208 
19 1 4.51884 4.55714 6.27526 
20 1 2.9892 2.99674 7.80311 
21 1 3.69159 3.71327 7.10157 
31 1 0.680521 0.667263 10.1659 
32 1 2.18021 2.17728 8.62252 
33 1 1.48125 1.47353 9.34188 
16 1 4.55719 6.20148 4.5134 
17 1 3.01441 7.76012 2.9895 
18 1 3.72138 7.04582 3.68782 
25 1 0.679639 10.0954 0.647331 
26 1 2.19782 8.57791 2.16868 
27 1 1.49097 9.28458 1.4603 
4 1 4.59499 6.18919 6.16146 
5 1 3.08249 7.6884 7.70041 
6 1 3.78791 6.98917 6.98262 
37 1 0.745977 10.024 10.0935 
38 1 2.26871 8.49695 8.52644 
39 1 1.56922 9.19837 9.24627 
13 1 6.28049 4.51545 4.64301 