ITEM: TIMESTEP
0
ITEM: NUMBER OF ATOMS
162
ITEM: BOX BOUNDS xy xz yz pp pp pp
-6.7755000000000001e+00 1.3552000000000000e+01 -6.7755000000000001e+00
0.0000000000000000e+00 1.1735510246683001e+01 0.0000000000000000e+00
0.0000000000000000e+00 2.2149999999999999e+01 0.0000000000000000e+00
ITEM: ATOMS id type x y z 
8 1 -2.486 5.297 9.849 
87 1 3.001 4.231 10.696 
90 1 2.733 5.481 9.824 
109 1 -2.486 5.297 0.765 
158 1 2.733 5.481 0.79 
11 1 4.24 4.139 20.131 
14 1 3.031 4.094 19.728 
18 1 1.299 5.827 18.554 
33 1 2.266 4.151 20.924 
43 1 4.343 3.96 21.647 
47 1 3.32 5.732 17.88 
52 1 4.24 4.139 12.633 
76 1 2.552 4.924 14.209 
85 1 4.343 3.96 11.117 
89 1 3.32 5.732 14.883 
91 1 1.036 5.037 11.84 
102 1 3.031 4.094 13.035 
105 1 1.299 5.827 14.209 
114 1 2.266 4.151 11.84 
150 1 2.552 4.924 18.554 
156 1 3.001 4.231 22.068 
159 1 1.036 5.037 20.924 
5 1 -5.049 10.63 8.653 
9 1 -3.317 8.897 7.479 
19 1 -1.707 7.414 10.572 
21 1 -2.66 8.795 10.993 
23 1 -3.31 7.532 6.805 
25 1 -4.284 10.573 9.849 
32 1 1.503 6.367 0.79 
36 1 -1.869 7.426 9.056 
38 1 -2.209 6.086 8.653 
54 1 0.3 8.576 10.696 
57 1 1.291 8.001 9.824 
60 1 -1.707 7.414 0.042 
65 1 -3.31 7.532 3.808 
78 1 -1.869 7.426 1.558 
80 1 -2.566 8.842 1.961 
84 1 -4.57 9.799 3.135 
99 1 -3.054 9.687 0.765 
100 1 -2.96 6.142 3.135 
107 1 -5.049 10.63 1.961 
110 1 -3.317 8.897 3.135 
111 1 0.642 5.929 10.696 
113 1 1.503 6.367 9.824 
119 1 -4.284 10.573 0.765 
127 1 -2.209 6.086 1.961 
131 1 -2.318 6.148 10.993 
138 1 1.291 8.001 0.79 
142 1 -2.566 8.842 8.653 
145 1 -4.57 9.799 7.479 
151 1 -5.019 10.493 10.993 
154 1 -3.054 9.687 9.849 
155 1 -2.96 6.142 7.479 
161 2 -0.705 7.958 8.603 
162 3 -0.705 7.958 7.627 
12 1 2.53 7.1 17.202 
17 1 0.468 9.427 20.924 
24 1 -3.52 8.357 11.865 
27 1 -0.31 7.31 21.647 
29 1 0.642 5.929 22.068 
31 1 1.292 7.192 17.88 
44 1 -0.148 7.298 20.131 
46 1 0.191 8.638 19.728 
51 1 -0.31 7.31 11.117 
53 1 2.53 7.1 15.561 
56 1 1.292 7.192 14.883 
63 1 -2.318 6.148 21.771 
66 1 -3.309 6.723 20.899 
70 1 -0.148 7.298 12.633 
72 1 0.548 5.882 13.035 
92 1 0.942 8.582 14.209 
95 1 -5.019 10.493 21.771 
98 1 -4.751 9.243 20.899 
104 1 0.468 9.427 11.84 
116 1 -2.66 8.795 21.771 
118 1 -3.52 8.357 20.899 
122 1 0.191 8.638 13.035 
133 1 -3.309 6.723 11.865 
136 1 0.3 8.576 22.068 
147 1 0.548 5.882 19.728 
153 1 -4.751 9.243 11.865 
160 1 0.942 8.582 18.554 
1 1 7.976 4.694 10.572 
4 1 9.274 4.77 10.993 
20 1 8.034 4.861 9.056 
42 1 9.55 5.41 7.479 
67 1 10.043 4.578 0.765 
77 1 7.976 4.694 0.042 
94 1 8.035 4.861 1.558 
96 1 9.278 4.635 1.961 
121 1 4.688 5.417 10.696 
130 1 9.55 5.41 3.135 
134 1 10.043 4.578 9.849 
152 1 9.278 4.635 8.653 
45 1 4.688 5.417 22.068 
55 1 4.788 5.329 13.035 
106 1 9.274 4.77 21.771 
137 1 4.788 5.329 19.728 
2 1 7.294 10.585 9.056 
3 1 9.004 7.624 6.127 
6 1 8.556 6.347 6.805 
16 1 2.314 8.72 0.79 
22 1 7.166 6.156 8.653 
26 1 7.226 8.565 7.479 
35 1 7.191 10.764 10.572 
37 1 6.846 9.307 10.993 
39 1 8.214 8.992 6.805 
41 1 6.677 7.002 9.849 
48 1 3.775 6.213 0.79 
61 1 7.294 10.585 1.558 
62 1 9.004 7.624 4.487 
64 1 6.747 9.395 1.961 
68 1 7.437 6.931 3.135 
71 1 4.29 8.493 10.696 
74 1 3.567 7.818 9.824 
81 1 8.556 6.347 3.808 
83 1 6.47 8.606 0.765 
93 1 7.191 10.764 0.042 
97 1 8.214 8.992 3.808 
101 1 2.261 9.954 10.696 
103 1 2.314 8.72 9.824 
117 1 7.166 6.156 1.961 
120 1 7.226 8.565 3.135 
123 1 3.775 6.213 9.824 
129 1 6.677 7.002 0.765 
132 1 6.747 9.395 8.653 
135 1 7.437 6.931 7.479 
141 1 7.244 6.231 10.993 
144 1 6.47 8.606 9.849 
148 1 3.567 7.818 0.79 
7 1 9.22 6.004 11.865 
10 1 3.558 10.029 21.647 
13 1 2.261 9.954 22.068 
15 1 2.978 8.376 17.88 
28 1 3.5 9.862 20.131 
30 1 4.369 8.568 19.728 
34 1 4.308 6.159 18.554 
40 1 7.76 8.511 11.865 
49 1 4.857 7.722 20.924 
50 1 1.984 9.314 18.554 
58 1 1.491 10.146 11.84 
59 1 4.097 7.793 14.209 
69 1 3.558 10.029 11.117 
73 1 2.978 8.376 14.883 
75 1 5.064 6.118 11.84 
79 1 7.244 6.231 21.771 
82 1 7.967 6.906 20.899 
86 1 3.5 9.862 12.633 
88 1 2.256 10.089 13.035 
108 1 9.22 6.004 20.899 
112 1 4.369 8.568 13.035 
115 1 4.308 6.159 14.209 
124 1 4.857 7.722 11.84 
125 1 1.984 9.314 14.209 
126 1 6.846 9.307 21.771 
128 1 7.76 8.511 20.899 
139 1 1.491 10.146 20.924 
140 1 4.097 7.793 18.554 
143 1 7.967 6.906 11.865 
146 1 4.29 8.493 22.068 
149 1 5.064 6.118 20.924 
157 1 2.256 10.089 19.728 
ITEM: TIMESTEP
10
ITEM: NUMBER OF ATOMS
162
ITEM: BOX BOUNDS xy xz yz pp pp pp
-6.7755000000000001e+00 1.3552000000000000e+01 -6.7755000000000001e+00
0.0000000000000000e+00 1.1735510246683001e+01 0.0000000000000000e+00
0.0000000000000000e+00 2.2149999999999999e+01 0.0000000000000000e+00
ITEM: ATOMS id type x y z 
8 1 -2.42632 5.37391 9.81632 
87 1 2.97242 4.29379 10.647 
90 1 2.66697 5.44209 9.76411 
109 1 -2.41747 5.37856 0.77809 
158 1 2.66469 5.4432 0.849651 
11 1 4.27933 4.22426 20.1074 
14 1 2.90294 4.14168 19.7005 
18 1 1.32493 5.8591 18.5934 
33 1 2.11535 4.25878 20.9042 
43 1 4.31652 4.15303 21.5779 
47 1 3.24025 5.78878 17.8406 
52 1 4.28137 4.23001 12.6554 
76 1 2.41717 4.89971 14.1683 
85 1 4.32034 4.15416 11.1847 
89 1 3.23723 5.79337 14.9205 
91 1 0.955885 5.10774 11.85 
102 1 2.90568 4.13827 13.0635 
105 1 1.33078 5.85642 14.1707 
114 1 2.11268 4.25922 11.8566 
150 1 2.4174 4.89656 18.5981 
156 1 2.96962 4.29092 22.1153 
159 1 0.957997 5.1039 20.9107 
5 1 -4.92602 10.5609 8.6062 
9 1 -3.3088 8.88142 7.53195 
19 1 -1.75864 7.51681 10.6316 
21 1 -2.59276 8.73924 10.95 
23 1 -3.28598 7.5632 6.85801 
25 1 -4.14915 10.4864 9.82855 
32 1 1.59227 6.34212 0.771084 
36 1 -1.68049 7.57931 8.92157 
38 1 -2.18109 6.15194 8.64709 
54 1 0.316166 8.52447 10.6846 
57 1 1.37118 7.99131 9.78554 
60 1 -1.76279 7.53554 0.0406737 
65 1 -3.29134 7.52919 3.80467 
78 1 -1.89265 7.55143 1.56541 
80 1 -2.5755 8.80092 1.90446 
84 1 -4.44929 9.85129 3.09481 
99 1 -2.97611 9.61436 0.786491 
100 1 -2.92094 6.2375 3.16819 
107 1 -4.93575 10.5914 1.96286 
110 1 -3.36903 8.87734 3.09465 
111 1 0.607215 5.96857 10.7518 
113 1 1.58912 6.34311 9.84553 
119 1 -4.12099 10.46 0.810422 
127 1 -2.15354 6.21618 1.96748 
131 1 -2.33377 6.22631 10.9903 
138 1 1.36797 7.9918 0.840141 
142 1 -2.61232 8.87028 8.73293 
145 1 -4.47078 9.79458 7.48359 
151 1 -4.99023 10.4206 11.0554 
154 1 -2.99507 9.62209 9.84509 
155 1 -2.93574 6.24187 7.45884 
161 2 -0.734806 7.92019 8.58737 
162 3 -0.679144 7.95239 7.62074 
12 1 2.56324 7.05469 17.1082 
17 1 0.404602 9.34324 20.9053 
24 1 -3.53718 8.37472 11.8564 
27 1 -0.261441 7.18441 21.6476 
29 1 0.605236 5.97495 22.0092 
31 1 1.29842 7.19382 17.9066 
44 1 -0.124216 7.17616 20.1288 
46 1 0.133694 8.51042 19.7308 
51 1 -0.251435 7.19807 11.135 
53 1 2.56875 7.05562 15.6524 
56 1 1.29675 7.19465 14.8588 
63 1 -2.32124 6.22142 21.7584 
66 1 -3.37914 6.73048 20.85 
70 1 -0.111329 7.17074 12.6381 
72 1 0.55365 5.92768 12.9846 
92 1 0.905502 8.46307 14.263 
95 1 -5.00059 10.4265 21.7051 
98 1 -4.67374 9.25953 20.8283 
104 1 0.407585 9.34441 11.8543 
116 1 -2.60384 8.75572 21.8262 
118 1 -3.60486 8.38632 20.9031 
122 1 0.129917 8.50856 13.0307 
133 1 -3.39516 6.77163 11.9269 
136 1 0.302817 8.51393 22.0836 
147 1 0.555417 5.92308 19.7845 
153 1 -4.66085 9.20988 11.9054 
160 1 0.902596 8.46297 18.5043 
1 1 7.83098 4.97851 10.52 
4 1 9.20674 4.75843 11.061 
20 1 7.84305 4.94151 9.06273 
42 1 9.44617 5.43965 7.43309 
67 1 9.97167 4.56807 0.761514 
77 1 7.86092 4.95473 0.0907154 
94 1 7.85617 4.94965 1.5693 
96 1 9.18381 4.6611 1.99618 
121 1 4.64944 5.43795 10.7186 
130 1 9.44351 5.42602 3.16985 
134 1 9.96628 4.56307 9.8328 
152 1 9.18345 4.65199 8.6118 
45 1 4.66031 5.44076 22.0549 
55 1 4.82034 5.48602 13.083 
106 1 9.18644 4.76052 21.7357 
137 1 4.82329 5.48526 19.678 
2 1 7.26835 10.4956 9.05989 
3 1 8.95945 7.6985 6.0697 
6 1 8.51645 6.39601 6.83271 
16 1 2.35441 8.68244 0.85619 
22 1 7.12523 6.19213 8.68339 
26 1 7.15901 8.40681 7.53221 
35 1 7.26206 10.5358 10.5069 
37 1 6.82888 9.26605 11.0184 
39 1 8.24022 8.90836 6.75129 
41 1 6.72253 7.00606 9.82332 
48 1 3.69008 6.37591 0.851536 
61 1 7.27391 10.4994 1.58436 
62 1 8.95503 7.64513 4.61735 
64 1 6.71393 9.23314 2.02949 
68 1 7.39344 6.99123 3.04294 
71 1 4.30744 8.54746 10.7707 
74 1 3.62185 7.79258 9.82122 
81 1 8.53104 6.40202 3.77007 
83 1 6.54489 8.43741 0.789817 
93 1 7.20662 10.5967 0.138034 
97 1 8.29464 8.91996 3.82121 
101 1 2.3496 9.9558 10.6692 
103 1 2.35784 8.68895 9.76077 
117 1 7.14402 6.1737 1.93605 
120 1 7.20496 8.39579 3.06068 
123 1 3.69526 6.37513 9.76328 
129 1 6.70831 7.01858 0.788859 
132 1 6.7067 9.24769 8.62443 
135 1 7.40486 6.94388 7.57099 
141 1 7.24184 6.18603 10.9328 
144 1 6.55079 8.41873 9.82258 
148 1 3.62192 7.79073 0.792485 
7 1 9.17003 6.0739 11.9258 
10 1 3.6782 9.76626 21.595 
13 1 2.34627 9.96178 22.1023 
15 1 3.01222 8.34287 17.9155 
28 1 3.68001 9.75199 20.1228 
30 1 4.39281 8.53728 19.7697 
34 1 4.36126 6.3325 18.632 
40 1 7.7266 8.37974 11.8749 
49 1 4.80031 7.72596 20.8932 
50 1 2.0836 9.29244 18.5235 
58 1 1.56122 10.1495 11.8253 
59 1 4.13137 7.74659 14.1106 
69 1 3.67103 9.76588 11.1635 
73 1 3.01076 8.33513 14.8436 
75 1 4.98512 6.29433 11.8425 
79 1 7.23458 6.15944 21.8314 
82 1 7.9098 6.93319 20.886 
86 1 3.67766 9.76605 12.6397 
88 1 2.35457 10.0664 13.0726 
108 1 9.18629 6.04052 20.8311 
112 1 4.40029 8.53013 12.9922 
115 1 4.35705 6.33663 14.1292 
124 1 4.80061 7.71685 11.8617 
125 1 2.08341 9.29163 14.2431 
126 1 6.86607 9.29191 21.7547 
128 1 7.83473 8.34955 20.8257 
139 1 1.55747 10.1499 20.9325 
140 1 4.13905 7.75416 18.6569 
143 1 7.89497 6.97449 11.8624 
146 1 4.30596 8.55141 21.9997 
149 1 4.98717 6.28931 20.9223 
157 1 2.3542 10.0651 19.6911 
ITEM: TIMESTEP
20
ITEM: NUMBER OF ATOMS
162
ITEM: BOX BOUNDS xy xz yz pp pp pp
-6.7755000000000001e+00 1.3552000000000000e+01 -6.7755000000000001e+00
0.0000000000000000e+00 1.1735510246683001e+01 0.0000000000000000e+00
0.0000000000000000e+00 2.2149999999999999e+01 0.0000000000000000e+00
ITEM: ATOMS id type x y z 
8 1 -2.43023 5.39349 9.81361 
87 1 2.95855 4.28135 10.6545 
90 1 2.66533 5.45147 9.76033 
109 1 -2.42369 5.3994 0.775782 
158 1 2.66415 5.45186 0.852608 
11 1 4.27815 4.23012 20.1155 
14 1 2.88813 4.14897 19.7035 
18 1 1.31016 5.85949 18.5814 
33 1 2.1012 4.27221 20.9066 
43 1 4.30155 4.18304 21.5651 
47 1 3.25039 5.79314 17.8487 
52 1 4.27692 4.22835 12.6461 
76 1 2.43276 4.91015 14.1798 
85 1 4.30385 4.17751 11.1973 
89 1 3.24712 5.79367 14.9166 
91 1 0.958511 5.112 11.844 
102 1 2.88785 4.14638 13.0605 
105 1 1.31477 5.86043 14.1857 
114 1 2.10015 4.27247 11.8553 
150 1 2.43299 4.91326 18.5835 
156 1 2.96012 4.28213 22.1088 
159 1 0.960335 5.10995 20.9163 
5 1 -4.90075 10.5512 8.61344 
9 1 -3.3024 8.86739 7.53768 
19 1 -1.75537 7.50795 10.6268 
21 1 -2.58409 8.74271 10.9579 
23 1 -3.30274 7.56406 6.86788 
25 1 -4.14506 10.4684 9.82833 
32 1 1.59543 6.35795 0.775657 
36 1 -1.6824 7.58372 8.92261 
38 1 -2.18883 6.15703 8.63349 
54 1 0.326296 8.50571 10.6806 
57 1 1.37091 7.98721 9.79441 
60 1 -1.7656 7.53555 0.0548114 
65 1 -3.30649 7.52807 3.80156 
78 1 -1.89263 7.5595 1.55432 
80 1 -2.5572 8.79048 1.90366 
84 1 -4.4568 9.82526 3.10635 
99 1 -2.97621 9.60951 0.773088 
100 1 -2.93443 6.26821 3.17461 
107 1 -4.90504 10.5849 1.97605 
110 1 -3.34233 8.86305 3.10808 
111 1 0.608378 5.96056 10.7409 
113 1 1.59472 6.35793 9.84117 
119 1 -4.11353 10.4467 0.784906 
127 1 -2.15715 6.23196 1.971 
131 1 -2.34876 6.25007 10.9916 
138 1 1.3651 7.9878 0.831186 
142 1 -2.61706 8.87434 8.7193 
145 1 -4.46578 9.77373 7.47937 
151 1 -4.97682 10.4063 11.0474 
154 1 -2.99687 9.62671 9.84394 
155 1 -2.9349 6.26879 7.4702 
161 2 -0.705513 7.92531 8.58053 
162 3 -0.679274 7.9491 7.61722 
12 1 2.56579 7.06414 17.1378 
17 1 0.406972 9.32335 20.9118 
24 1 -3.5332 8.36072 11.8615 
27 1 -0.255725 7.19369 21.6364 
29 1 0.606559 5.96369 22.0229 
31 1 1.29279 7.19438 17.9001 
44 1 -0.127779 7.16537 20.1413 
46 1 0.136808 8.49273 19.7192 
51 1 -0.2488 7.20182 11.1341 
53 1 2.56603 7.06373 15.6272 
56 1 1.29107 7.19473 14.865 
63 1 -2.33269 6.22992 21.7595 
66 1 -3.38031 6.73415 20.8572 
70 1 -0.12103 7.16516 12.6346 
72 1 0.536435 5.92372 12.9766 
92 1 0.907846 8.45495 14.2519 
95 1 -4.98852 10.4437 21.7314 
98 1 -4.67952 9.26639 20.8185 
104 1 0.407435 9.32857 11.8542 
116 1 -2.61199 8.76169 21.8165 
118 1 -3.59982 8.36581 20.9054 
122 1 0.137735 8.49575 13.0487 
133 1 -3.39729 6.77227 11.916 
136 1 0.313975 8.49612 22.0821 
147 1 0.533539 5.92876 19.7924 
153 1 -4.66402 9.19832 11.9135 
160 1 0.906913 8.45514 18.5125 
1 1 7.86833 4.95532 10.5289 
4 1 9.16291 4.80795 11.0244 
20 1 7.83777 4.93994 9.06647 
42 1 9.44359 5.4448 7.43913 
67 1 9.96471 4.57713 0.756935 
77 1 7.87086 4.94043 0.0912555 
94 1 7.84764 4.94479 1.55659 
96 1 9.17004 4.66699 1.9985 
121 1 4.65358 5.47557 10.7022 
130 1 9.45603 5.44535 3.17116 
134 1 9.94312 4.5684 9.85042 
152 1 9.16307 4.6665 8.6159 
45 1 4.65489 5.47457 22.0624 
55 1 4.82821 5.51314 13.0711 
106 1 9.15948 4.78947 21.7505 
137 1 4.82514 5.51309 19.6937 
2 1 7.26848 10.4943 9.04899 
3 1 8.97403 7.69401 6.09023 
6 1 8.52794 6.40157 6.82555 
16 1 2.36267 8.69094 0.857093 
22 1 7.10545 6.18085 8.70095 
26 1 7.16812 8.41976 7.52708 
35 1 7.25868 10.5245 10.5009 
37 1 6.83667 9.2437 11.0209 
39 1 8.2342 8.91486 6.75917 
41 1 6.71647 7.00316 9.82214 
48 1 3.69494 6.36433 0.840686 
61 1 7.2508 10.4975 1.58114 
62 1 8.98003 7.64404 4.57326 
64 1 6.70814 9.21123 1.99409 
68 1 7.39455 6.96712 3.05644 
71 1 4.3185 8.53068 10.755 
74 1 3.6069 7.79183 9.80936 
81 1 8.52354 6.40289 3.79261 
83 1 6.55745 8.43291 0.781547 
93 1 7.22797 10.5353 0.1311 
97 1 8.29878 8.9277 3.8389 
101 1 2.37764 9.93399 10.6718 
103 1 2.36559 8.69395 9.75776 
117 1 7.10815 6.18534 1.90532 
120 1 7.20089 8.41741 3.06945 
123 1 3.6942 6.36512 9.77299 
129 1 6.72076 7.00546 0.784362 
132 1 6.70195 9.20892 8.62906 
135 1 7.39632 6.94669 7.55353 
141 1 7.22193 6.2062 10.9392 
144 1 6.54999 8.41845 9.81207 
148 1 3.60576 7.79207 0.803606 
7 1 9.16225 6.06169 11.9161 
10 1 3.66995 9.78519 21.6026 
13 1 2.37627 9.93431 22.0882 
15 1 3.01969 8.33257 17.9054 
28 1 3.68864 9.77184 20.1258 
30 1 4.41888 8.53396 19.7784 
34 1 4.34203 6.30743 18.6172 
40 1 7.73356 8.38352 11.881 
49 1 4.80978 7.72329 20.9046 
50 1 2.08071 9.27672 18.5181 
58 1 1.56968 10.1498 11.8377 
59 1 4.13287 7.75987 14.1266 
69 1 3.67069 9.7791 11.1653 
73 1 3.01666 8.33299 14.8586 
75 1 4.98217 6.29623 11.8557 
79 1 7.21311 6.20036 21.8341 
82 1 7.92637 6.92945 20.8831 
86 1 3.69082 9.77536 12.6336 
88 1 2.36357 10.056 13.0703 
108 1 9.17315 6.03066 20.832 
112 1 4.42177 8.53587 12.985 
115 1 4.3414 6.3108 14.1469 
124 1 4.81052 7.72115 11.858 
125 1 2.07866 9.27804 14.245 
126 1 6.87135 9.25968 21.7798 
128 1 7.83241 8.35354 20.8383 
139 1 1.56751 10.1469 20.9295 
140 1 4.13501 7.76221 18.634 
143 1 7.90831 6.96729 11.8732 
146 1 4.32023 8.5267 22.0083 
149 1 4.98097 6.29357 20.9084 
157 1 2.36213 10.055 19.6948 
ITEM: TIMESTEP
30
ITEM: NUMBER OF ATOMS
162
ITEM: BOX BOUNDS xy xz yz pp pp pp
-6.7755000000000001e+00 1.3552000000000000e+01 -6.7755000000000001e+00
0.0000000000000000e+00 1.1735510246683001e+01 0.0000000000000000e+00
0.0000000000000000e+00 2.2149999999999999e+01 0.0000000000000000e+00
ITEM: ATOMS id type x y z 
8 1 -2.4453 5.40903 9.80611 
87 1 2.94788 4.28518 10.6504 
90 1 2.65178 5.44319 9.76252 
109 1 -2.43917 5.41794 0.781546 
158 1 2.65072 5.44511 0.851412 
11 1 4.26953 4.24046 20.1149 
14 1 2.87655 4.16256 19.7054 
18 1 1.29071 5.8551 18.5709 
33 1 2.08797 4.27727 20.9055 
43 1 4.28309 4.21976 21.5558 
47 1 3.24892 5.79472 17.8341 
52 1 4.26864 4.24168 12.648 
76 1 2.43495 4.92742 14.1862 
85 1 4.28487 4.2166 11.2054 
89 1 3.25066 5.79385 14.9302 
91 1 0.94778 5.12257 11.8352 
102 1 2.87606 4.16207 13.0576 
105 1 1.29257 5.85411 14.1958 
114 1 2.08801 4.27709 11.858 
150 1 2.43377 4.92873 18.5782 
156 1 2.94799 4.28604 22.1128 
159 1 0.948381 5.12366 20.9256 
5 1 -4.89503 10.5375 8.61675 
9 1 -3.29287 8.87155 7.53956 
19 1 -1.74907 7.5169 10.6179 
21 1 -2.56799 8.74754 10.9669 
23 1 -3.29735 7.56978 6.86343 
25 1 -4.12899 10.4608 9.83443 
32 1 1.60139 6.37431 0.784271 
36 1 -1.66949 7.59109 8.91953 
38 1 -2.1885 6.16527 8.63001 
54 1 0.335808 8.49479 10.6798 
57 1 1.37886 7.9795 9.79926 
60 1 -1.76796 7.5428 0.0542905 
65 1 -3.2972 7.5416 3.80344 
78 1 -1.87618 7.56943 1.55015 
80 1 -2.53911 8.798 1.90283 
84 1 -4.45572 9.79875 3.10887 
99 1 -2.96461 9.59621 0.762268 
100 1 -2.93903 6.28115 3.17254 
107 1 -4.89475 10.5646 1.98451 
110 1 -3.31163 8.86942 3.11774 
111 1 0.602516 5.95981 10.7269 
113 1 1.60102 6.37322 9.83221 
119 1 -4.1092 10.4428 0.778265 
127 1 -2.15911 6.24354 1.97457 
131 1 -2.36213 6.26698 10.9931 
138 1 1.37163 7.98046 0.826009 
142 1 -2.60503 8.87971 8.71504 
145 1 -4.46059 9.76163 7.47973 
151 1 -4.97013 10.3843 11.0466 
154 1 -2.97815 9.6175 9.85379 
155 1 -2.94055 6.28023 7.47929 
161 2 -0.666636 7.93067 8.57541 
162 3 -0.681919 7.9423 7.61143 
12 1 2.56709 7.07367 17.1514 
17 1 0.420343 9.30512 20.9069 
24 1 -3.52527 8.3454 11.8691 
27 1 -0.249904 7.18322 21.6383 
29 1 0.599848 5.9614 22.0395 
31 1 1.28156 7.18407 17.8956 
44 1 -0.144406 7.15328 20.1427 
46 1 0.138531 8.47951 19.7161 
51 1 -0.246662 7.1893 11.1313 
53 1 2.56629 7.07271 15.6125 
56 1 1.28111 7.18386 14.8715 
63 1 -2.34369 6.24278 21.7528 
66 1 -3.38899 6.74151 20.8629 
70 1 -0.136086 7.15389 12.6337 
72 1 0.515325 5.92207 12.9774 
92 1 0.91722 8.44565 14.2509 
95 1 -4.96502 10.4316 21.7253 
98 1 -4.67115 9.27428 20.8306 
104 1 0.421498 9.31109 11.8588 
116 1 -2.61564 8.76352 21.7981 
118 1 -3.61567 8.35658 20.9011 
122 1 0.137937 8.48155 13.0512 
133 1 -3.40116 6.78461 11.9093 
136 1 0.324816 8.48317 22.0879 
147 1 0.514624 5.92404 19.7903 
153 1 -4.66361 9.19121 11.9193 
160 1 0.915707 8.44477 18.5159 
1 1 7.84208 4.9617 10.5264 
4 1 9.14399 4.83322 11.0223 
20 1 7.81075 4.93818 9.07228 
42 1 9.44072 5.45686 7.44382 
67 1 9.9574 4.59194 0.77468 
77 1 7.84424 4.94727 0.0958514 
94 1 7.82121 4.94511 1.54883 
96 1 9.16027 4.68528 1.99649 
121 1 4.64473 5.50452 10.6863 
130 1 9.44852 5.46155 3.16963 
134 1 9.93429 4.5855 9.84187 
152 1 9.14793 4.67838 8.61749 
45 1 4.64542 5.50474 22.0788 
55 1 4.82238 5.52506 13.0674 
106 1 9.1421 4.81139 21.7537 
137 1 4.82233 5.52627 19.6965 
2 1 7.27377 10.479 9.04045 
3 1 8.97666 7.69102 6.10099 
6 1 8.52012 6.40528 6.81944 
16 1 2.36826 8.69584 0.864893 
22 1 7.08322 6.17057 8.69339 
26 1 7.17276 8.40797 7.51819 
35 1 7.26308 10.5017 10.4871 
37 1 6.84517 9.22047 11.0227 
39 1 8.22591 8.9217 6.74409 
41 1 6.70361 6.98615 9.82917 
48 1 3.69961 6.35375 0.838347 
61 1 7.26288 10.4864 1.5804 
62 1 8.97892 7.64611 4.5508 
64 1 6.71299 9.19999 1.99331 
68 1 7.38936 6.95682 3.06404 
71 1 4.32583 8.52161 10.7396 
74 1 3.59943 7.80365 9.79841 
81 1 8.50875 6.39712 3.80524 
83 1 6.55218 8.41757 0.786489 
93 1 7.2493 10.4997 0.139261 
97 1 8.28688 8.92685 3.85617 
101 1 2.39485 9.91499 10.6777 
103 1 2.37272 8.69873 9.74887 
117 1 7.0883 6.18052 1.91416 
120 1 7.20425 8.41606 3.07939 
123 1 3.69906 6.35334 9.77574 
129 1 6.71071 6.98543 0.779119 
132 1 6.70361 9.19584 8.62818 
135 1 7.38224 6.94081 7.54444 
141 1 7.20906 6.20934 10.9448 
144 1 6.54132 8.40797 9.80987 
148 1 3.59825 7.80364 0.813205 
7 1 9.15261 6.06329 11.9197 
10 1 3.69608 9.78357 21.5956 
13 1 2.39384 9.91037 22.0833 
15 1 3.02617 8.33096 17.8875 
28 1 3.7114 9.77977 20.1402 
30 1 4.44337 8.54286 19.7756 
34 1 4.3387 6.30948 18.6083 
40 1 7.73884 8.38477 11.8961 
49 1 4.82428 7.73892 20.9129 
50 1 2.08267 9.263 18.5198 
58 1 1.57911 10.1364 11.8489 
59 1 4.14411 7.76555 14.1389 
69 1 3.6935 9.77805 11.1715 
73 1 3.02505 8.33165 14.876 
75 1 4.98581 6.31079 11.8651 
79 1 7.20964 6.20492 21.8177 
82 1 7.93751 6.91991 20.8757 
86 1 3.71422 9.78161 12.6237 
88 1 2.37648 10.0396 13.0708 
108 1 9.1667 6.02766 20.8231 
112 1 4.44616 8.54464 12.9886 
115 1 4.33801 6.30874 14.1553 
124 1 4.82318 7.73931 11.852 
125 1 2.08223 9.26418 14.2441 
126 1 6.88278 9.21944 21.763 
128 1 7.83983 8.36824 20.8453 
139 1 1.57538 10.1333 20.9165 
140 1 4.14774 7.76527 18.6224 
143 1 7.90992 6.95755 11.8848 
146 1 4.32439 8.52079 22.0228 
149 1 4.98475 6.31066 20.899 
157 1 2.3738 10.0375 19.6935 
ITEM: TIMESTEP
40
ITEM: NUMBER OF ATOMS
162
ITEM: BOX BOUNDS xy xz yz pp pp pp
-6.7755000000000001e+00 1.3552000000000000e+01 -6.7755000000000001e+00
0.0000000000000000e+00 1.1735510246683001e+01 0.0000000000000000e+00
0.0000000000000000e+00 2.2149999999999999e+01 0.0000000000000000e+00
ITEM: ATOMS id type x y z 
8 1 -2.46312 5.43664 9.79901 
87 1 2.93893 4.30366 10.6484 
90 1 2.63614 5.4455 9.74391 
109 1 -2.45642 5.44997 0.787405 
158 1 2.63568 5.4471 0.869745 
11 1 4.2561 4.2682 20.1027 
14 1 2.8573 4.17966 19.7126 
18 1 1.2754 5.8495 18.5609 
33 1 2.06817 4.29181 20.9088 
43 1 4.26306 4.26174 21.5408 
47 1 3.23596 5.80123 17.8283 
52 1 4.25502 4.26777 12.6593 
76 1 2.41655 4.93511 14.1914 
85 1 4.26471 4.2597 11.2226 
89 1 3.23709 5.80021 14.9368 
91 1 0.927302 5.13343 11.8339 
102 1 2.85769 4.18027 13.0511 
105 1 1.27645 5.8472 14.2062 
114 1 2.06943 4.29039 11.855 
150 1 2.41542 4.93459 18.5731 
156 1 2.93758 4.30542 22.115 
159 1 0.928435 5.13606 20.9295 
5 1 -4.87934 10.511 8.62557 
9 1 -3.27592 8.87513 7.54081 
19 1 -1.74102 7.53389 10.6082 
21 1 -2.53801 8.74988 10.9807 
23 1 -3.29871 7.57535 6.862 
25 1 -4.10694 10.4437 9.83854 
32 1 1.59064 6.38248 0.803655 
36 1 -1.62713 7.61129 8.90096 
38 1 -2.18342 6.18131 8.62819 
54 1 0.350917 8.47722 10.6844 
57 1 1.3943 7.97749 9.79673 
60 1 -1.76721 7.55924 0.0485356 
65 1 -3.29624 7.54338 3.80516 
78 1 -1.85206 7.59362 1.55339 
80 1 -2.5115 8.80885 1.90554 
84 1 -4.43531 9.78269 3.12009 
99 1 -2.95115 9.58831 0.761538 
100 1 -2.93885 6.29584 3.17001 
107 1 -4.87532 10.5432 1.97589 
110 1 -3.28906 8.87618 3.13054 
111 1 0.589559 5.95931 10.7114 
113 1 1.59041 6.3797 9.81358 
119 1 -4.08935 10.4276 0.780332 
127 1 -2.15526 6.26892 1.9748 
131 1 -2.37103 6.29135 10.9835 
138 1 1.38526 7.97704 0.830477 
142 1 -2.58038 8.88888 8.71409 
145 1 -4.45508 9.74835 7.47687 
151 1 -4.9618 10.3563 11.0415 
154 1 -2.94571 9.61062 9.85979 
155 1 -2.94465 6.294 7.48551 
161 2 -0.606222 7.93666 8.56838 
162 3 -0.688517 7.92878 7.60291 
12 1 2.57085 7.071 17.149 
17 1 0.437555 9.27399 20.904 
24 1 -3.50715 8.34235 11.885 
27 1 -0.249967 7.16448 21.6426 
29 1 0.584384 5.96138 22.0567 
31 1 1.28021 7.18509 17.891 
44 1 -0.168116 7.13012 20.1397 
46 1 0.133078 8.45377 19.7172 
51 1 -0.24849 7.17072 11.1289 
53 1 2.57205 7.06977 15.6152 
56 1 1.27945 7.18333 14.8751 
63 1 -2.3541 6.26022 21.7538 
66 1 -3.40265 6.7477 20.8576 
70 1 -0.160498 7.13138 12.6371 
72 1 0.49333 5.91367 12.9864 
92 1 0.917701 8.43302 14.2485 
95 1 -4.95419 10.4189 21.7259 
98 1 -4.65233 9.28154 20.8148 
104 1 0.440666 9.28255 11.8651 
116 1 -2.60261 8.76301 21.7792 
118 1 -3.61132 8.34123 20.8828 
122 1 0.133578 8.45618 13.0525 
133 1 -3.41025 6.79582 11.9105 
136 1 0.336262 8.46459 22.0868 
147 1 0.492195 5.91337 19.7799 
153 1 -4.65372 9.1733 11.9334 
160 1 0.915811 8.43212 18.5203 
1 1 7.79516 4.96145 10.5278 
4 1 9.11306 4.86002 11.0133 
20 1 7.7695 4.93799 9.06641 
42 1 9.42708 5.47349 7.45282 
67 1 9.93607 4.6201 0.781476 
77 1 7.80423 4.94854 0.0938593 
94 1 7.78298 4.94563 1.55609 
96 1 9.12214 4.71177 1.99884 
121 1 4.62528 5.53627 10.6833 
130 1 9.43483 5.48046 3.16907 
134 1 9.90916 4.6146 9.83914 
152 1 9.10954 4.69853 8.61825 
45 1 4.62583 5.53689 22.0806 
55 1 4.816 5.55218 13.0707 
106 1 9.1165 4.83182 21.7656 
137 1 4.81533 5.55237 19.6932 
2 1 7.2806 10.4513 9.03032 
3 1 8.9699 7.70445 6.10228 
6 1 8.51411 6.41301 6.81531 
16 1 2.37907 8.70208 0.87932 
22 1 7.04269 6.15746 8.67706 
26 1 7.16774 8.39052 7.50335 
35 1 7.27745 10.4581 10.4717 
37 1 6.85501 9.19108 11.0234 
39 1 8.22563 8.91945 6.73174 
41 1 6.67497 6.96632 9.82312 
48 1 3.68808 6.36232 0.860551 
61 1 7.27904 10.4578 1.58692 
62 1 8.96821 7.65438 4.55299 
64 1 6.71993 9.17395 1.99542 
68 1 7.37188 6.9498 3.07479 
71 1 4.34159 8.51963 10.7247 
74 1 3.60426 7.80997 9.7776 
81 1 8.50455 6.40162 3.81618 
83 1 6.54736 8.38666 0.793711 
93 1 7.27366 10.4598 0.149699 
97 1 8.30225 8.9146 3.86803 
101 1 2.42156 9.89695 10.6903 
103 1 2.38445 8.70622 9.73348 
117 1 7.05246 6.16787 1.92914 
120 1 7.20029 8.39682 3.09293 
123 1 3.68751 6.36064 9.7536 
129 1 6.68467 6.96728 0.781671 
132 1 6.70829 9.17006 8.62173 
135 1 7.36223 6.92733 7.5339 
141 1 7.18423 6.21182 10.9571 
144 1 6.53046 8.38392 9.80693 
148 1 3.60264 7.81014 0.83228 
7 1 9.13727 6.06989 11.9294 
10 1 3.73842 9.7848 21.5994 
13 1 2.4193 9.88956 22.0719 
15 1 3.03208 8.32904 17.8826 
28 1 3.74993 9.77622 20.1347 
30 1 4.48085 8.55632 19.7609 
34 1 4.33454 6.3266 18.5964 
40 1 7.74199 8.3734 11.9194 
49 1 4.84921 7.7591 20.9106 
50 1 2.09693 9.24786 18.5223 
58 1 1.60131 10.109 11.8565 
59 1 4.1655 7.77398 14.1469 
69 1 3.73406 9.77827 11.1673 
73 1 3.03154 8.32973 14.8825 
75 1 4.98623 6.33563 11.8683 
79 1 7.19188 6.20502 21.7995 
82 1 7.93473 6.9127 20.8557 
86 1 3.75326 9.7785 12.6305 
88 1 2.4132 10.0165 13.0734 
108 1 9.15665 6.02046 20.8077 
112 1 4.48281 8.55725 13.0039 
115 1 4.33427 6.32683 14.1667 
124 1 4.84812 7.75719 11.8552 
125 1 2.0973 9.25003 14.2423 
126 1 6.90848 9.18192 21.7558 
128 1 7.84701 8.36059 20.8292 
139 1 1.59583 10.1038 20.9086 
140 1 4.1662 7.77497 18.6155 
143 1 7.89587 6.95049 11.9103 
146 1 4.34083 8.51957 22.0389 
149 1 4.98618 6.33625 20.8962 
157 1 2.41125 10.0139 19.6918 
ITEM: TIMESTEP
50
ITEM: NUMBER OF ATOMS
162
ITEM: BOX BOUNDS xy xz yz pp pp pp
-6.7755000000000001e+00 1.3552000000000000e+01 -6.7755000000000001e+00
0.0000000000000000e+00 1.1735510246683001e+01 0.0000000000000000e+00
0.0000000000000000e+00 2.2149999999999999e+01 0.0000000000000000e+00
ITEM: ATOMS id type x y z 
8 1 -2.50143 5.48077 9.78088 
87 1 2.91252 4.34067 10.6412 
90 1 2.61801 5.4631 9.70549 
109 1 -2.49233 5.49598 0.794823 
158 1 2.61767 5.46649 0.908727 
11 1 4.22702 4.31795 20.0899 
14 1 2.82521 4.20051 19.7167 
18 1 1.24906 5.85812 18.5446 
33 1 2.0486 4.31329 20.923 
43 1 4.23027 4.32053 21.5219 
47 1 3.22035 5.78696 17.8416 
52 1 4.22979 4.31842 12.6771 
76 1 2.38092 4.92462 14.2009 
85 1 4.2307 4.32005 11.241 
89 1 3.22254 5.78709 14.9219 
91 1 0.886592 5.14342 11.8262 
102 1 2.82634 4.20113 13.0468 
105 1 1.25079 5.8562 14.2221 
114 1 2.04885 4.31144 11.8413 
150 1 2.38041 4.92759 18.5625 
156 1 2.91101 4.34266 22.1219 
159 1 0.885798 5.14552 20.9389 
5 1 -4.85294 10.476 8.63541 
9 1 -3.24317 8.87785 7.55067 
19 1 -1.72824 7.55717 10.5945 
21 1 -2.49894 8.7653 11.0005 
23 1 -3.30543 7.57539 6.87359 
25 1 -4.08163 10.4048 9.84705 
32 1 1.5643 6.38217 0.841097 
36 1 -1.54858 7.63881 8.85681 
38 1 -2.17822 6.21351 8.62272 
54 1 0.386183 8.44486 10.6881 
57 1 1.41708 7.97678 9.78487 
60 1 -1.75776 7.58148 0.0554335 
65 1 -3.30659 7.53999 3.81645 
78 1 -1.80894 7.62824 1.55415 
80 1 -2.47823 8.83209 1.93311 
84 1 -4.39903 9.80287 3.12327 
99 1 -2.90269 9.57852 0.751066 
100 1 -2.93474 6.2885 3.161 
107 1 -4.83972 10.5184 1.9761 
110 1 -3.26517 8.86722 3.14257 
111 1 0.574027 5.95054 10.6952 
113 1 1.56457 6.38047 9.77947 
119 1 -4.07328 10.4092 0.765345 
127 1 -2.14111 6.30935 1.97171 
131 1 -2.39528 6.32721 10.9747 
138 1 1.40162 7.97568 0.846032 
142 1 -2.53484 8.90764 8.70648 
145 1 -4.43496 9.72618 7.47033 
151 1 -4.94011 10.3025 11.0445 
154 1 -2.89011 9.60755 9.86733 
155 1 -2.94737 6.30166 7.50151 
161 2 -0.486072 7.94836 8.54512 
162 3 -0.702433 7.90187 7.5955 
12 1 2.58088 7.05595 17.1512 
17 1 0.469956 9.22536 20.8968 
24 1 -3.46902 8.33763 11.9082 
27 1 -0.26042 7.14199 21.6364 
29 1 0.56807 5.95149 22.0758 
31 1 1.2866 7.18884 17.8917 
44 1 -0.208209 7.09184 20.1338 
46 1 0.120814 8.41864 19.7204 
51 1 -0.257748 7.15007 11.1352 
53 1 2.58148 7.05332 15.617 
56 1 1.29009 7.18902 14.8774 
63 1 -2.38683 6.2908 21.7495 
66 1 -3.4181 6.73987 20.8421 
70 1 -0.199303 7.09518 12.6445 
72 1 0.455218 5.89397 13.0039 
92 1 0.917092 8.44239 14.2399 
95 1 -4.93105 10.374 21.7155 
98 1 -4.64382 9.24858 20.7759 
104 1 0.47723 9.23626 11.8775 
116 1 -2.58527 8.77278 21.7715 
118 1 -3.57529 8.35178 20.8405 
122 1 0.121655 8.42172 13.052 
133 1 -3.42085 6.8082 11.9125 
136 1 0.36649 8.43214 22.0913 
147 1 0.4533 5.89227 19.7652 
153 1 -4.63842 9.1417 11.9593 
160 1 0.913559 8.4409 18.5311 
1 1 7.71513 4.95404 10.529 
4 1 9.04673 4.90965 11.0045 
20 1 7.69044 4.93902 9.06858 
42 1 9.41073 5.4922 7.47052 
67 1 9.89754 4.67755 0.801258 
77 1 7.74362 4.93982 0.100735 
94 1 7.70875 4.94682 1.54801 
96 1 9.07372 4.74633 1.99965 
121 1 4.5944 5.58542 10.6829 
130 1 9.42534 5.4956 3.15971 
134 1 9.8671 4.66983 9.82671 
152 1 9.05287 4.73111 8.62658 
45 1 4.59269 5.58628 22.0792 
55 1 4.80975 5.59346 13.0837 
106 1 9.05877 4.85811 21.781 
137 1 4.80946 5.59783 19.6813 
2 1 7.30117 10.399 9.01395 
3 1 8.96152 7.73143 6.11486 
6 1 8.50217 6.4257 6.82157 
16 1 2.4037 8.70675 0.89727 
22 1 6.97084 6.13334 8.64857 
26 1 7.15441 8.36419 7.46922 
35 1 7.30487 10.3956 10.4488 
37 1 6.87366 9.13869 11.0288 
39 1 8.20746 8.93266 6.73763 
41 1 6.62524 6.9248 9.82355 
48 1 3.66237 6.37771 0.899334 
61 1 7.30436 10.4023 1.60007 
62 1 8.96981 7.66041 4.56838 
64 1 6.7236 9.12236 2.00845 
68 1 7.34172 6.91723 3.09477 
71 1 4.36635 8.51468 10.7144 
74 1 3.62579 7.82902 9.74987 
81 1 8.4875 6.41192 3.81469 
83 1 6.54752 8.3615 0.796539 
93 1 7.29727 10.407 0.169685 
97 1 8.31871 8.92101 3.84736 
101 1 2.47685 9.8678 10.7026 
103 1 2.41069 8.71549 9.71584 
117 1 6.98269 6.15136 1.95811 
120 1 7.21241 8.37858 3.12089 
123 1 3.66229 6.37634 9.71361 
129 1 6.64279 6.9202 0.778751 
132 1 6.69959 9.1251 8.61811 
135 1 7.32792 6.90355 7.51252 
141 1 7.14335 6.21544 10.9636 
144 1 6.51885 8.357 9.7991 
148 1 3.62163 7.83148 0.859835 
7 1 9.10682 6.08444 11.9386 
10 1 3.80691 9.80719 21.5986 
13 1 2.47474 9.85876 22.0571 
15 1 3.04445 8.318 17.8858 
28 1 3.82183 9.77487 20.1397 
30 1 4.55107 8.5766 19.7382 
34 1 4.33054 6.35235 18.5758 
40 1 7.74798 8.35582 11.9494 
49 1 4.89356 7.80127 20.9135 
50 1 2.1014 9.23682 18.5343 
58 1 1.64293 10.0592 11.8738 