 # File generated with Atomsk by ana on 2024-09-05 17:53:15
  
         162  atoms
           3  atom types
 
      0.000000000000      13.552000000000  xlo xhi
      0.000000000000      11.735510246683  ylo yhi
      0.000000000000      22.150000000000  zlo zhi
     -6.775500000000       0.000000000000       0.000000000000  xy xz yz
 
Masses
 
            1   12.01100000             # C
            2   15.99900000             # O
            3   1.00800000              # H
 
Atoms # charge
 
         1    1   0.000000       -5.576000000000       4.694000000000      10.572000000000
         2    1   0.000000       -6.258000000000      10.585000000000       9.056000000000
         3    1   0.000000       -4.548000000000       7.624000000000       6.127000000000
         4    1   0.000000       -4.278000000000       4.770000000000      10.993000000000
         5    1   0.000000       -5.049000000000      10.630000000000       8.653000000000
         6    1   0.000000       -4.996000000000       6.347000000000       6.805000000000
         7    1   0.000000       -4.332000000000       6.004000000000      11.865000000000
         8    1   0.000000       -2.486000000000       5.297000000000       9.849000000000
         9    1   0.000000       -3.317000000000       8.897000000000       7.479000000000
        10    1   0.000000        3.558000000000      10.029000000000      21.647000000000
        11    1   0.000000        4.240000000000       4.139000000000      20.131000000000
        12    1   0.000000        2.530000000000       7.100000000000      17.202000000000
        13    1   0.000000        2.261000000000       9.954000000000      -0.082000000000
        14    1   0.000000        3.031000000000       4.094000000000      19.728000000000
        15    1   0.000000        2.978000000000       8.376000000000      17.880000000000
        16    1   0.000000        2.314000000000       8.720000000000       0.790000000000
        17    1   0.000000        0.468000000000       9.427000000000      20.924000000000
        18    1   0.000000        1.299000000000       5.827000000000      18.554000000000
        19    1   0.000000       -1.707000000000       7.414000000000      10.572000000000
        20    1   0.000000       -5.518000000000       4.861000000000       9.056000000000
        21    1   0.000000       -2.660000000000       8.795000000000      10.993000000000
        22    1   0.000000       -6.386000000000       6.156000000000       8.653000000000
        23    1   0.000000       -3.310000000000       7.532000000000       6.805000000000
        24    1   0.000000       -3.520000000000       8.357000000000      11.865000000000
        25    1   0.000000       -4.284000000000      10.573000000000       9.849000000000
        26    1   0.000000       -6.326000000000       8.565000000000       7.479000000000
        27    1   0.000000       -0.310000000000       7.310000000000      21.647000000000
        28    1   0.000000        3.500000000000       9.862000000000      20.131000000000
        29    1   0.000000        0.642000000000       5.929000000000      -0.082000000000
        30    1   0.000000        4.369000000000       8.568000000000      19.728000000000
        31    1   0.000000        1.292000000000       7.192000000000      17.880000000000
        32    1   0.000000        1.503000000000       6.367000000000       0.790000000000
        33    1   0.000000        2.266000000000       4.151000000000      20.924000000000
        34    1   0.000000        4.308000000000       6.159000000000      18.554000000000
        35    1   0.000000       -6.361000000000      10.764000000000      10.572000000000
        36    1   0.000000       -1.869000000000       7.426000000000       9.056000000000
        37    1   0.000000       -6.706000000000       9.307000000000      10.993000000000
        38    1   0.000000       -2.209000000000       6.086000000000       8.653000000000
        39    1   0.000000       -5.338000000000       8.992000000000       6.805000000000
        40    1   0.000000       -5.792000000000       8.511000000000      11.865000000000
        41    1   0.000000       -6.875000000000       7.002000000000       9.849000000000
        42    1   0.000000       -4.002000000000       5.410000000000       7.479000000000
        43    1   0.000000        4.343000000000       3.960000000000      21.647000000000
        44    1   0.000000       -0.148000000000       7.298000000000      20.131000000000
        45    1   0.000000        4.688000000000       5.417000000000      -0.082000000000
        46    1   0.000000        0.191000000000       8.638000000000      19.728000000000
        47    1   0.000000        3.320000000000       5.732000000000      17.880000000000
        48    1   0.000000        3.775000000000       6.213000000000       0.790000000000
        49    1   0.000000        4.857000000000       7.722000000000      20.924000000000
        50    1   0.000000        1.984000000000       9.314000000000      18.554000000000
        51    1   0.000000       -0.310000000000       7.310000000000      11.117000000000
        52    1   0.000000        4.240000000000       4.139000000000      12.633000000000
        53    1   0.000000        2.530000000000       7.100000000000      15.561000000000
        54    1   0.000000        0.300000000000       8.576000000000      10.696000000000
        55    1   0.000000        4.788000000000       5.329000000000      13.035000000000
        56    1   0.000000        1.292000000000       7.192000000000      14.883000000000
        57    1   0.000000        1.291000000000       8.001000000000       9.824000000000
        58    1   0.000000        1.491000000000      10.146000000000      11.840000000000
        59    1   0.000000        4.097000000000       7.793000000000      14.209000000000
        60    1   0.000000       -1.707000000000       7.414000000000       0.042000000000
        61    1   0.000000       -6.258000000000      10.585000000000       1.558000000000
        62    1   0.000000       -4.548000000000       7.624000000000       4.487000000000
        63    1   0.000000       -2.318000000000       6.148000000000      21.771000000000
        64    1   0.000000       -6.805000000000       9.395000000000       1.961000000000
        65    1   0.000000       -3.310000000000       7.532000000000       3.808000000000
        66    1   0.000000       -3.309000000000       6.723000000000      20.899000000000
        67    1   0.000000       -3.509000000000       4.578000000000       0.765000000000
        68    1   0.000000       -6.115000000000       6.931000000000       3.135000000000
        69    1   0.000000        3.558000000000      10.029000000000      11.117000000000
        70    1   0.000000       -0.148000000000       7.298000000000      12.633000000000
        71    1   0.000000        4.290000000000       8.493000000000      10.696000000000
        72    1   0.000000        0.548000000000       5.882000000000      13.035000000000
        73    1   0.000000        2.978000000000       8.376000000000      14.883000000000
        74    1   0.000000        3.567000000000       7.818000000000       9.824000000000
        75    1   0.000000        5.064000000000       6.118000000000      11.840000000000
        76    1   0.000000        2.552000000000       4.924000000000      14.209000000000
        77    1   0.000000       -5.576000000000       4.694000000000       0.042000000000
        78    1   0.000000       -1.869000000000       7.426000000000       1.558000000000
        79    1   0.000000       -6.308000000000       6.231000000000      21.771000000000
        80    1   0.000000       -2.566000000000       8.842000000000       1.961000000000
        81    1   0.000000       -4.996000000000       6.347000000000       3.808000000000
        82    1   0.000000       -5.585000000000       6.906000000000      20.899000000000
        83    1   0.000000       -7.082000000000       8.606000000000       0.765000000000
        84    1   0.000000       -4.570000000000       9.799000000000       3.135000000000
        85    1   0.000000        4.343000000000       3.960000000000      11.117000000000
        86    1   0.000000        3.500000000000       9.862000000000      12.633000000000
        87    1   0.000000        3.001000000000       4.231000000000      10.696000000000
        88    1   0.000000        2.256000000000      10.089000000000      13.035000000000
        89    1   0.000000        3.320000000000       5.732000000000      14.883000000000
        90    1   0.000000        2.733000000000       5.481000000000       9.824000000000
        91    1   0.000000        1.036000000000       5.037000000000      11.840000000000
        92    1   0.000000        0.942000000000       8.582000000000      14.209000000000
        93    1   0.000000       -6.361000000000      10.764000000000       0.042000000000
        94    1   0.000000       -5.517000000000       4.861000000000       1.558000000000
        95    1   0.000000       -5.019000000000      10.493000000000      21.771000000000
        96    1   0.000000       -4.274000000000       4.635000000000       1.961000000000
        97    1   0.000000       -5.338000000000       8.992000000000       3.808000000000
        98    1   0.000000       -4.751000000000       9.243000000000      20.899000000000
        99    1   0.000000       -3.054000000000       9.687000000000       0.765000000000
       100    1   0.000000       -2.960000000000       6.142000000000       3.135000000000
       101    1   0.000000        2.261000000000       9.954000000000      10.696000000000
       102    1   0.000000        3.031000000000       4.094000000000      13.035000000000
       103    1   0.000000        2.314000000000       8.720000000000       9.824000000000
       104    1   0.000000        0.468000000000       9.427000000000      11.840000000000
       105    1   0.000000        1.299000000000       5.827000000000      14.209000000000
       106    1   0.000000       -4.278000000000       4.770000000000      21.771000000000
       107    1   0.000000       -5.049000000000      10.630000000000       1.961000000000
       108    1   0.000000       -4.332000000000       6.004000000000      20.899000000000
       109    1   0.000000       -2.486000000000       5.297000000000       0.765000000000
       110    1   0.000000       -3.317000000000       8.897000000000       3.135000000000
       111    1   0.000000        0.642000000000       5.929000000000      10.696000000000
       112    1   0.000000        4.369000000000       8.568000000000      13.035000000000
       113    1   0.000000        1.503000000000       6.367000000000       9.824000000000
       114    1   0.000000        2.266000000000       4.151000000000      11.840000000000
       115    1   0.000000        4.308000000000       6.159000000000      14.209000000000
       116    1   0.000000       -2.660000000000       8.795000000000      21.771000000000
       117    1   0.000000       -6.386000000000       6.156000000000       1.961000000000
       118    1   0.000000       -3.520000000000       8.357000000000      20.899000000000
       119    1   0.000000       -4.284000000000      10.573000000000       0.765000000000
       120    1   0.000000       -6.326000000000       8.565000000000       3.135000000000
       121    1   0.000000        4.688000000000       5.417000000000      10.696000000000
       122    1   0.000000        0.191000000000       8.638000000000      13.035000000000
       123    1   0.000000        3.775000000000       6.213000000000       9.824000000000
       124    1   0.000000        4.857000000000       7.722000000000      11.840000000000
       125    1   0.000000        1.984000000000       9.314000000000      14.209000000000
       126    1   0.000000       -6.706000000000       9.307000000000      21.771000000000
       127    1   0.000000       -2.209000000000       6.086000000000       1.961000000000
       128    1   0.000000       -5.792000000000       8.511000000000      20.899000000000
       129    1   0.000000       -6.875000000000       7.002000000000       0.765000000000
       130    1   0.000000       -4.002000000000       5.410000000000       3.135000000000
       131    1   0.000000       -2.318000000000       6.148000000000      10.993000000000
       132    1   0.000000       -6.805000000000       9.395000000000       8.653000000000
       133    1   0.000000       -3.309000000000       6.723000000000      11.865000000000
       134    1   0.000000       -3.509000000000       4.578000000000       9.849000000000
       135    1   0.000000       -6.115000000000       6.931000000000       7.479000000000
       136    1   0.000000        0.300000000000       8.576000000000      -0.082000000000
       137    1   0.000000        4.788000000000       5.329000000000      19.728000000000
       138    1   0.000000        1.291000000000       8.001000000000       0.790000000000
       139    1   0.000000        1.491000000000      10.146000000000      20.924000000000
       140    1   0.000000        4.097000000000       7.793000000000      18.554000000000
       141    1   0.000000       -6.308000000000       6.231000000000      10.993000000000
       142    1   0.000000       -2.566000000000       8.842000000000       8.653000000000
       143    1   0.000000       -5.585000000000       6.906000000000      11.865000000000
       144    1   0.000000       -7.082000000000       8.606000000000       9.849000000000
       145    1   0.000000       -4.570000000000       9.799000000000       7.479000000000
       146    1   0.000000        4.290000000000       8.493000000000      -0.082000000000
       147    1   0.000000        0.548000000000       5.882000000000      19.728000000000
       148    1   0.000000        3.567000000000       7.818000000000       0.790000000000
       149    1   0.000000        5.064000000000       6.118000000000      20.924000000000
       150    1   0.000000        2.552000000000       4.924000000000      18.554000000000
       151    1   0.000000       -5.019000000000      10.493000000000      10.993000000000
       152    1   0.000000       -4.274000000000       4.635000000000       8.653000000000
       153    1   0.000000       -4.751000000000       9.243000000000      11.865000000000
       154    1   0.000000       -3.054000000000       9.687000000000       9.849000000000
       155    1   0.000000       -2.960000000000       6.142000000000       7.479000000000
       156    1   0.000000        3.001000000000       4.231000000000      -0.082000000000
       157    1   0.000000        2.256000000000      10.089000000000      19.728000000000
       158    1   0.000000        2.733000000000       5.481000000000       0.790000000000
       159    1   0.000000        1.036000000000       5.037000000000      20.924000000000
       160    1   0.000000        0.942000000000       8.582000000000      18.554000000000
       161    2   0.000000       -0.705000000000       7.958000000000       8.603000000000
       162    3   0.000000       -0.705000000000       7.958000000000       7.627000000000
