ITEM: TIMESTEP
0
ITEM: NUMBER OF ATOMS
97
ITEM: BOX BOUNDS pp pp pp
0.0000000000000000e+00 1.6524999999999999e+01
0.0000000000000000e+00 1.6526000000000000e+01
0.0000000000000000e+00 1.6526000000000000e+01
ITEM: ATOMS id type x y z 
1 1 1.813 1.813 1.813 
10 1 5.821 5.821 5.821 
17 1 3.388 3.388 3.388 
26 1 4.246 4.246 4.246 
33 1 0.284 2 2 
41 1 2 0.284 2 
49 1 2 2 0.283 
58 1 7.351 5.634 5.634 
66 1 5.634 7.351 5.634 
74 1 5.634 5.634 7.351 
81 1 2.689 2.689 2.689 
90 1 4.945 4.945 4.945 
4 1 1.813 1.813 14.084 
11 1 5.821 5.821 10.076 
20 1 3.388 3.388 12.509 
27 1 4.246 4.246 11.651 
36 1 0.284 2 13.897 
46 1 2 0.284 13.897 
56 1 2 2 15.614 
59 1 7.351 5.634 10.263 
69 1 5.634 7.351 10.263 
79 1 5.634 5.634 8.546 
84 1 2.689 2.689 13.208 
91 1 4.945 4.945 10.952 
6 1 1.813 14.084 1.813 
13 1 5.821 10.076 5.821 
22 1 3.388 12.509 3.388 
29 1 4.246 11.651 4.246 
38 1 0.284 13.897 2 
48 1 2 15.614 2 
52 1 2 13.897 0.283 
61 1 7.351 10.263 5.634 
71 1 5.634 8.546 5.634 
75 1 5.634 10.263 7.351 
86 1 2.689 13.208 2.689 
93 1 4.945 10.952 4.945 
7 1 1.813 14.084 14.084 
16 1 5.821 10.076 10.076 
23 1 3.388 12.509 12.509 
32 1 4.246 11.651 11.651 
39 1 0.284 13.897 13.897 
43 1 2 15.614 13.897 
53 1 2 13.897 15.614 
64 1 7.351 10.263 10.263 
68 1 5.634 8.547 10.263 
78 1 5.634 10.263 8.546 
87 1 2.689 13.208 13.208 
96 1 4.945 10.952 10.952 
8 1 14.084 1.813 1.813 
15 1 10.076 5.821 5.821 
24 1 12.509 3.388 3.388 
31 1 11.651 4.246 4.246 
40 1 15.613 2 2 
44 1 13.897 0.284 2 
54 1 13.897 2 0.283 
63 1 8.547 5.634 5.634 
67 1 10.263 7.351 5.634 
77 1 10.263 5.634 7.351 
88 1 13.208 2.689 2.689 
95 1 10.952 4.945 4.945 
97 2 13.598 2.297 3.918 
5 1 14.084 1.813 14.084 
14 1 10.076 5.821 10.076 
21 1 12.509 3.388 12.509 
30 1 11.651 4.246 11.651 
37 1 15.613 2 13.897 
47 1 13.897 0.284 13.897 
51 1 13.897 2 15.614 
62 1 8.546 5.634 10.263 
72 1 10.263 7.351 10.263 
76 1 10.263 5.634 8.546 
85 1 13.208 2.689 13.208 
94 1 10.952 4.945 10.952 
3 1 14.084 14.084 1.813 
12 1 10.076 10.076 5.821 
19 1 12.509 12.509 3.388 
28 1 11.651 11.651 4.246 
35 1 15.613 13.897 2 
45 1 13.897 15.614 2 
55 1 13.897 13.897 0.283 
60 1 8.547 10.263 5.634 
70 1 10.263 8.547 5.634 
80 1 10.263 10.263 7.351 
83 1 13.208 13.208 2.689 
92 1 10.952 10.952 4.945 
2 1 14.084 14.084 14.084 
9 1 10.076 10.076 10.076 
18 1 12.509 12.509 12.509 
25 1 11.651 11.651 11.651 
34 1 15.613 13.897 13.897 
42 1 13.897 15.614 13.897 
50 1 13.897 13.897 15.614 
57 1 8.546 10.263 10.263 
65 1 10.263 8.546 10.263 
73 1 10.263 10.263 8.547 
82 1 13.208 13.208 13.208 
89 1 10.952 10.952 10.952 
ITEM: TIMESTEP
10
ITEM: NUMBER OF ATOMS
97
ITEM: BOX BOUNDS pp pp pp
0.0000000000000000e+00 1.6524999999999999e+01
0.0000000000000000e+00 1.6526000000000000e+01
0.0000000000000000e+00 1.6526000000000000e+01
ITEM: ATOMS id type x y z 
1 1 1.8078 1.81281 1.81268 
10 1 5.82023 5.82102 5.82073 
17 1 3.39084 3.39033 3.39037 
26 1 4.24315 4.24304 4.24306 
33 1 0.271788 2.00107 2.00152 
41 1 2.00161 0.281086 2.0015 
49 1 2.00156 2.00151 0.281727 
58 1 7.35208 5.6318 5.63191 
66 1 5.6319 7.35162 5.63193 
74 1 5.63194 5.63189 7.3514 
81 1 2.69192 2.69295 2.6929 
90 1 4.94102 4.94121 4.94113 
4 1 1.81299 1.81395 14.0842 
11 1 5.82087 5.82112 10.076 
20 1 3.39082 3.39078 12.5062 
27 1 4.24312 4.2431 11.6539 
36 1 0.279018 2.00198 13.8948 
46 1 2.00217 0.28269 13.8949 
56 1 2.00216 2.00192 15.6175 
59 1 7.35124 5.63196 10.265 
69 1 5.63197 7.35142 10.265 
79 1 5.632 5.63199 8.546 
84 1 2.69277 2.69284 13.2043 
91 1 4.94114 4.9412 10.9558 
6 1 1.81274 14.0846 1.81391 
13 1 5.82151 10.0759 5.82101 
22 1 3.39079 12.5062 3.39076 
29 1 4.24312 11.6539 4.24313 
38 1 0.279321 13.8948 2.00188 
48 1 2.00214 15.6185 2.00185 
52 1 2.00207 13.8949 0.282443 
61 1 7.35206 10.2649 5.63206 
71 1 5.63204 8.54589 5.63206 
75 1 5.63203 10.265 7.35153 
86 1 2.69277 13.2044 2.69284 
93 1 4.94124 10.9558 4.94119 
7 1 1.81242 14.0849 14.0847 
16 1 5.82106 10.0762 10.0759 
23 1 3.39057 12.5064 12.5064 
32 1 4.24316 11.6538 11.6538 
39 1 0.284909 13.8952 13.8953 
43 1 2.00176 15.6128 13.8953 
53 1 2.00173 13.8953 15.6126 
64 1 7.35215 10.265 10.265 
68 1 5.63195 8.54622 10.265 
78 1 5.63197 10.265 8.54518 
87 1 2.69284 13.2043 13.2042 
96 1 4.94115 10.9559 10.9558 
8 1 14.1096 1.78736 1.77698 
15 1 10.0797 5.81813 5.81745 
24 1 12.4972 3.39967 3.47503 
31 1 11.6494 4.24749 4.23158 
40 1 15.6032 1.99635 1.99665 
44 1 13.9007 0.293741 1.99664 
54 1 13.8995 1.9975 0.292725 
63 1 8.54425 5.63165 5.63176 
67 1 10.2653 7.35261 5.63171 
77 1 10.2653 5.63168 7.35335 
88 1 13.2447 2.65248 2.62219 
95 1 10.9458 4.9512 4.94878 
97 2 13.5727 2.32235 3.92825 
5 1 14.0845 1.8125 14.0899 
14 1 10.0759 5.82104 10.0766 
21 1 12.5067 3.39032 12.5062 
30 1 11.6539 4.24302 11.6539 
37 1 15.6153 2.00142 13.8955 
47 1 13.8956 0.281236 13.8955 
51 1 13.8959 2.00114 15.6242 
62 1 8.54575 5.63192 10.265 
72 1 10.2651 7.35215 10.2651 
76 1 10.2651 5.63187 8.54547 
85 1 13.2041 2.69298 13.2049 
94 1 10.9559 4.94116 10.956 
3 1 14.0842 14.0895 1.81269 
12 1 10.076 10.0765 5.82122 
19 1 12.5067 12.5062 3.39036 
28 1 11.6537 11.6537 4.24316 
35 1 15.6155 13.8954 2.00146 
45 1 13.896 15.6258 2.00145 
55 1 13.8955 13.8955 0.281752 
60 1 8.5457 10.2649 5.63215 
70 1 10.265 8.54729 5.63202 
80 1 10.2648 10.2649 7.35181 
83 1 13.2041 13.2051 2.69288 
92 1 10.9559 10.9558 4.94133 
2 1 14.083 14.0844 14.0843 
9 1 10.0759 10.0759 10.0759 
18 1 12.5063 12.5062 12.5062 
25 1 11.6539 11.6539 11.6539 
34 1 15.614 13.8949 13.8949 
42 1 13.8951 15.6188 13.8949 
50 1 13.8951 13.8949 15.6174 
57 1 8.54502 10.265 10.265 
65 1 10.265 8.54514 10.265 
73 1 10.265 10.265 8.54545 
82 1 13.2042 13.2044 13.2043 
89 1 10.9558 10.9558 10.9558 
ITEM: TIMESTEP
20
ITEM: NUMBER OF ATOMS
97
ITEM: BOX BOUNDS pp pp pp
0.0000000000000000e+00 1.6524999999999999e+01
0.0000000000000000e+00 1.6526000000000000e+01
0.0000000000000000e+00 1.6526000000000000e+01
ITEM: ATOMS id type x y z 
1 1 1.80697 1.81495 1.81405 
10 1 5.81747 5.81898 5.81875 
17 1 3.39165 3.39059 3.39069 
26 1 4.24207 4.24178 4.24182 
33 1 0.274425 2.00265 2.00378 
41 1 2.00342 0.282612 2.00356 
49 1 2.00334 2.00354 0.282992 
58 1 7.35241 5.62914 5.62925 
66 1 5.62922 7.35247 5.62932 
74 1 5.62926 5.62927 7.3523 
81 1 2.69149 2.69397 2.69382 
90 1 4.9396 4.94007 4.93997 
4 1 1.81482 1.81523 14.0823 
11 1 5.81894 5.8192 10.0779 
20 1 3.39173 3.3916 12.5052 
27 1 4.24207 4.24205 11.6549 
36 1 0.278687 2.00434 13.8921 
46 1 2.0046 0.281775 13.8925 
56 1 2.00483 2.00427 15.6186 
59 1 7.35156 5.62941 10.2675 
69 1 5.62943 7.35201 10.2676 
79 1 5.62949 5.62941 8.54538 
84 1 2.69349 2.69377 13.2036 
91 1 4.94011 4.94017 10.9568 
6 1 1.81406 14.0827 1.81512 
13 1 5.81963 10.0781 5.81889 
22 1 3.3917 12.5053 3.39138 
29 1 4.24194 11.6549 4.24209 
38 1 0.279936 13.8923 2.00413 
48 1 2.00472 15.6183 2.00412 
52 1 2.00442 13.8926 0.282489 
61 1 7.35216 10.2675 5.62946 
71 1 5.62948 8.545 5.62944 
75 1 5.62944 10.2675 7.35216 
86 1 2.69334 13.2037 2.69401 
93 1 4.94038 10.957 4.94002 
7 1 1.8151 14.0823 14.082 
16 1 5.81891 10.0783 10.078 
23 1 3.3918 12.5052 12.5052 
32 1 4.24217 11.6548 11.6548 
39 1 0.282389 13.8925 13.8925 
43 1 2.00447 15.6162 13.8926 
53 1 2.00447 13.8926 15.6155 
64 1 7.35178 10.2677 10.2676 
68 1 5.62932 8.54515 10.2677 
78 1 5.62934 10.2676 8.54451 
87 1 2.69372 13.2034 13.2033 
96 1 4.94029 10.9568 10.9567 
8 1 14.1094 1.78686 1.77636 
15 1 10.0826 5.81514 5.81546 
24 1 12.5185 3.37829 3.51986 
31 1 11.6422 4.25467 4.22139 
40 1 15.6025 1.99633 1.99677 
44 1 13.9008 0.293755 1.99659 
54 1 13.8986 1.99835 0.291936 
63 1 8.54308 5.62875 5.62884 
67 1 10.2683 7.35404 5.6288 
77 1 10.2683 5.62876 7.35437 
88 1 13.2451 2.65204 2.5974 
95 1 10.9445 4.9528 4.94523 
97 2 13.5577 2.33739 3.92589 
5 1 14.0826 1.81438 14.0908 
14 1 10.0781 5.81896 10.0796 
21 1 12.5063 3.39072 12.5053 
30 1 11.6551 4.24189 11.6548 
37 1 15.6142 2.0035 13.8936 
47 1 13.8935 0.282849 13.8936 
51 1 13.8939 2.00309 15.6209 
62 1 8.54487 5.62928 10.2677 
72 1 10.2677 7.35187 10.2678 
76 1 10.2677 5.62915 8.545 
85 1 13.203 2.69399 13.2053 
94 1 10.9569 4.94007 10.9573 
3 1 14.0817 14.09 1.81433 
12 1 10.0785 10.0796 5.81901 
19 1 12.5064 12.5053 3.39072 
28 1 11.6552 11.655 4.24173 
35 1 15.6146 13.8936 2.00372 
45 1 13.8943 15.6247 2.00376 
55 1 13.8933 13.8937 0.282678 
60 1 8.54438 10.2678 5.6294 
70 1 10.2678 8.54567 5.62923 
80 1 10.2676 10.2677 7.35246 
83 1 13.2031 13.2055 2.69377 
92 1 10.957 10.9574 4.94004 
2 1 14.0815 14.0825 14.0825 
9 1 10.0782 10.0782 10.0781 
18 1 12.5055 12.5053 12.5053 
25 1 11.6551 11.655 11.655 
34 1 15.6141 13.8924 13.8925 
42 1 13.8928 15.6186 13.8922 
50 1 13.8928 13.8923 15.6182 
57 1 8.54511 10.2677 10.2677 
65 1 10.2677 8.54524 10.2676 
73 1 10.2676 10.2676 8.54518 
82 1 13.2032 13.2037 13.2037 
89 1 10.9569 10.9569 10.957 
ITEM: TIMESTEP
30
ITEM: NUMBER OF ATOMS
97
ITEM: BOX BOUNDS pp pp pp
0.0000000000000000e+00 1.6524999999999999e+01
0.0000000000000000e+00 1.6526000000000000e+01
0.0000000000000000e+00 1.6526000000000000e+01
ITEM: ATOMS id type x y z 
1 1 1.80666 1.81573 1.81516 
10 1 5.8161 5.81826 5.81815 
17 1 3.39155 3.39026 3.39035 
26 1 4.24211 4.24167 4.24167 
33 1 0.272581 2.00355 2.00498 
41 1 2.00444 0.283507 2.00472 
49 1 2.00437 2.00477 0.283723 
58 1 7.35235 5.62764 5.62772 
66 1 5.62769 7.35254 5.62784 
74 1 5.62777 5.62779 7.35237 
81 1 2.69116 2.69444 2.69427 
90 1 4.93889 4.93958 4.93955 
4 1 1.81528 1.81588 14.0821 
11 1 5.81811 5.81863 10.079 
20 1 3.39147 3.39138 12.5055 
27 1 4.24207 4.24199 11.6549 
36 1 0.280204 2.00555 13.8907 
46 1 2.0059 0.282667 13.8912 
56 1 2.00619 2.00545 15.6175 
59 1 7.35225 5.62791 10.2689 
69 1 5.62797 7.35238 10.269 
79 1 5.62807 5.62793 8.54497 
84 1 2.69383 2.69406 13.2033 
91 1 4.93963 4.9398 10.9574 
6 1 1.81529 14.0823 1.81603 
13 1 5.81889 10.0788 5.81812 
22 1 3.39145 12.5055 3.39136 
29 1 4.24204 11.6549 4.24208 
38 1 0.279934 13.8908 2.00548 
48 1 2.00614 15.6179 2.00544 
52 1 2.00578 13.8912 0.282114 
61 1 7.3518 10.2689 5.62802 
71 1 5.62811 8.54511 5.62801 
75 1 5.62803 10.269 7.35198 
86 1 2.69372 13.2033 2.69405 
93 1 4.93983 10.9574 4.93959 
7 1 1.81563 14.0814 14.0816 
16 1 5.81824 10.079 10.0789 
23 1 3.39169 12.5053 12.5053 
32 1 4.24219 11.6548 11.6548 
39 1 0.281951 13.8912 13.8911 
43 1 2.00587 15.6161 13.8912 
53 1 2.00587 13.8912 15.6157 
64 1 7.35233 10.2691 10.269 
68 1 5.62788 8.5447 10.2691 
78 1 5.62789 10.2691 8.54455 
87 1 2.69413 13.2029 13.203 
96 1 4.93989 10.9572 10.9571 
8 1 14.1059 1.79063 1.77832 
15 1 10.0825 5.81511 5.81581 
24 1 12.529 3.36769 3.53428 
31 1 11.6398 4.2571 4.21657 
40 1 15.6035 1.99608 1.99679 
44 1 13.901 0.293276 1.99664 
54 1 13.8985 1.99849 0.291183 
63 1 8.54388 5.62725 5.6274 
67 1 10.2698 7.35411 5.62733 
77 1 10.2699 5.62719 7.35376 
88 1 13.243 2.65415 2.58755 
95 1 10.944 4.9533 4.94142 
97 2 13.5562 2.3389 3.92757 
5 1 14.0812 1.81533 14.0908 
14 1 10.0784 5.81851 10.0809 
21 1 12.5066 3.3905 12.5053 
30 1 11.6552 4.2418 11.6547 
37 1 15.6137 2.00486 13.8925 
47 1 13.8922 0.283558 13.8925 
51 1 13.8927 2.00428 15.6219 
62 1 8.54465 5.62785 10.2692 
72 1 10.2691 7.35273 10.2692 
76 1 10.2692 5.62769 8.5453 
85 1 13.2024 2.69449 13.2056 
94 1 10.9572 4.93974 10.9581 
3 1 14.0813 14.0906 1.81576 
12 1 10.0793 10.0805 5.8187 
19 1 12.5067 12.5055 3.39034 
28 1 11.6553 11.655 4.24158 
35 1 15.613 13.8925 2.00487 
45 1 13.8934 15.6255 2.00492 
55 1 13.892 13.8926 0.283193 
60 1 8.54467 10.2692 5.62797 
70 1 10.2692 8.54555 5.62775 
80 1 10.269 10.2692 7.35212 
83 1 13.2026 13.2059 2.69428 
92 1 10.9577 10.9581 4.93965 
2 1 14.0807 14.0818 14.0821 
9 1 10.0787 10.0787 10.0794 
18 1 12.5057 12.5055 12.5054 
25 1 11.6551 11.6551 11.6549 
34 1 15.6145 13.8911 13.8911 
42 1 13.8915 15.6177 13.8907 
50 1 13.8915 13.8908 15.6175 
57 1 8.54471 10.2691 10.269 
65 1 10.2692 8.5444 10.269 
73 1 10.2691 10.2691 8.54466 
82 1 13.2029 13.2033 13.2034 
89 1 10.9573 10.9573 10.9576 
ITEM: TIMESTEP
36
ITEM: NUMBER OF ATOMS
97
ITEM: BOX BOUNDS pp pp pp
0.0000000000000000e+00 1.6524999999999999e+01
0.0000000000000000e+00 1.6526000000000000e+01
0.0000000000000000e+00 1.6526000000000000e+01
ITEM: ATOMS id type x y z 
1 1 1.80664 1.81579 1.81516 
10 1 5.81607 5.81824 5.81814 
17 1 3.39154 3.39025 3.39036 
26 1 4.24211 4.24165 4.24166 
33 1 0.272523 2.00357 2.00502 
41 1 2.00448 0.283686 2.00476 
49 1 2.0044 2.00481 0.28367 
58 1 7.35243 5.62759 5.62767 
66 1 5.62765 7.35246 5.62779 
74 1 5.62772 5.62775 7.35236 
81 1 2.69116 2.69445 2.69427 
90 1 4.93888 4.93959 4.93954 
4 1 1.81532 1.81591 14.082 
11 1 5.81809 5.81858 10.079 
20 1 3.39147 3.39139 12.5055 
27 1 4.24207 4.24199 11.6549 
36 1 0.280169 2.00559 13.8907 
46 1 2.00595 0.282636 13.8911 
56 1 2.00624 2.00549 15.6176 
59 1 7.35215 5.62786 10.269 
69 1 5.62792 7.35231 10.269 
79 1 5.62802 5.62788 8.54497 
84 1 2.69384 2.69406 13.2033 
91 1 4.93961 4.93979 10.9574 
6 1 1.81533 14.0822 1.81607 
13 1 5.81884 10.0788 5.81809 
22 1 3.39144 12.5055 3.39135 
29 1 4.24203 11.6549 4.24208 
38 1 0.279934 13.8908 2.00553 
48 1 2.00619 15.6177 2.00548 
52 1 2.00583 13.8912 0.282189 
61 1 7.3518 10.269 5.62796 
71 1 5.62806 8.54516 5.62796 
75 1 5.62798 10.269 7.35197 
86 1 2.69373 13.2033 2.69406 
93 1 4.93983 10.9574 4.93957 
7 1 1.81567 14.0814 14.0816 
16 1 5.81821 10.079 10.0789 
23 1 3.39169 12.5053 12.5053 
32 1 4.24219 11.6548 11.6548 
39 1 0.282057 13.8911 13.8911 
43 1 2.00592 15.6161 13.8911 
53 1 2.00591 13.8912 15.6156 
64 1 7.35228 10.2692 10.2691 
68 1 5.62783 8.5448 10.2691 
78 1 5.62785 10.2691 8.54461 
87 1 2.69414 13.2029 13.203 
96 1 4.93987 10.9572 10.9572 
8 1 14.1058 1.79075 1.77839 
15 1 10.0824 5.81514 5.81583 
24 1 12.5293 3.36741 3.53467 
31 1 11.6398 4.25715 4.21643 
40 1 15.6035 1.99607 1.99679 
44 1 13.901 0.293237 1.99664 
54 1 13.8985 1.9985 0.291092 
63 1 8.54385 5.6272 5.62736 
67 1 10.2698 7.35414 5.62729 
77 1 10.2699 5.62714 7.3538 
88 1 13.2429 2.65422 2.58733 
95 1 10.944 4.9533 4.94127 
97 2 13.5562 2.3389 3.9276 
5 1 14.0812 1.81534 14.0908 
14 1 10.0785 5.81847 10.081 
21 1 12.5066 3.39049 12.5053 
30 1 11.6552 4.24179 11.6547 
37 1 15.6136 2.00489 13.8925 
47 1 13.8922 0.28355 13.8925 
51 1 13.8927 2.00431 15.622 
62 1 8.54475 5.6278 10.2692 
72 1 10.2692 7.35252 10.2692 
76 1 10.2692 5.62764 8.54523 
85 1 13.2024 2.6945 13.2057 
94 1 10.9572 4.93973 10.9581 
3 1 14.0813 14.0906 1.81576 
12 1 10.0793 10.0806 5.81868 
19 1 12.5067 12.5055 3.39033 
28 1 11.6553 11.655 4.24156 
35 1 15.6129 13.8925 2.00491 
45 1 13.8934 15.6256 2.00495 
55 1 13.892 13.8926 0.283262 
60 1 8.54472 10.2693 5.62792 
70 1 10.2693 8.54545 5.6277 
80 1 10.269 10.2692 7.35212 
83 1 13.2026 13.2059 2.69429 
92 1 10.9577 10.9581 4.93964 
2 1 14.0806 14.0818 14.0821 
9 1 10.0788 10.0787 10.0794 
18 1 12.5057 12.5055 12.5055 
25 1 11.6551 11.6551 11.6549 
34 1 15.6144 13.8911 13.891 
42 1 13.8914 15.6178 13.8907 
50 1 13.8914 13.8908 15.6175 
57 1 8.54478 10.2692 10.2691 
65 1 10.2692 8.54461 10.269 
73 1 10.2691 10.2691 8.54466 
82 1 13.2029 13.2033 13.2034 
89 1 10.9573 10.9573 10.9576 
ITEM: TIMESTEP
37
ITEM: NUMBER OF ATOMS
97
ITEM: BOX BOUNDS pp pp pp
0.0000000000000000e+00 1.6524999999999999e+01
0.0000000000000000e+00 1.6526000000000000e+01
0.0000000000000000e+00 1.6526000000000000e+01
ITEM: ATOMS id type x y z 
1 1 1.80664 1.81579 1.81516 
10 1 5.81607 5.81824 5.81814 
17 1 3.39154 3.39025 3.39036 
26 1 4.24211 4.24165 4.24166 
33 1 0.272523 2.00357 2.00502 
41 1 2.00448 0.283686 2.00476 
49 1 2.0044 2.00481 0.28367 
58 1 7.35243 5.62759 5.62767 
66 1 5.62765 7.35246 5.62779 
74 1 5.62772 5.62775 7.35236 
81 1 2.69116 2.69445 2.69427 
90 1 4.93888 4.93959 4.93954 
4 1 1.81532 1.81591 14.082 
11 1 5.81809 5.81858 10.079 
20 1 3.39147 3.39139 12.5055 
27 1 4.24207 4.24199 11.6549 
36 1 0.280169 2.00559 13.8907 
46 1 2.00595 0.282636 13.8911 
56 1 2.00624 2.00549 15.6176 
59 1 7.35215 5.62786 10.269 
69 1 5.62792 7.35231 10.269 
79 1 5.62802 5.62788 8.54497 
84 1 2.69384 2.69406 13.2033 
91 1 4.93961 4.93979 10.9574 
6 1 1.81533 14.0822 1.81607 
13 1 5.81884 10.0788 5.81809 
22 1 3.39144 12.5055 3.39135 
29 1 4.24203 11.6549 4.24208 
38 1 0.279934 13.8908 2.00553 
48 1 2.00619 15.6177 2.00548 
52 1 2.00583 13.8912 0.282189 
61 1 7.3518 10.269 5.62796 
71 1 5.62806 8.54516 5.62796 
75 1 5.62798 10.269 7.35197 
86 1 2.69373 13.2033 2.69406 
93 1 4.93983 10.9574 4.93957 
7 1 1.81567 14.0814 14.0816 
16 1 5.81821 10.079 10.0789 
23 1 3.39169 12.5053 12.5053 
32 1 4.24219 11.6548 11.6548 
39 1 0.282057 13.8911 13.8911 
43 1 2.00592 15.6161 13.8911 
53 1 2.00591 13.8912 15.6156 
64 1 7.35228 10.2692 10.2691 
68 1 5.62783 8.5448 10.2691 
78 1 5.62785 10.2691 8.54461 
87 1 2.69414 13.2029 13.203 
96 1 4.93987 10.9572 10.9572 
8 1 14.1058 1.79075 1.77839 
15 1 10.0824 5.81514 5.81583 
24 1 12.5293 3.36741 3.53467 
31 1 11.6398 4.25715 4.21643 
40 1 15.6035 1.99607 1.99679 
44 1 13.901 0.293237 1.99664 
54 1 13.8985 1.9985 0.291092 
63 1 8.54385 5.6272 5.62736 
67 1 10.2698 7.35414 5.62729 
77 1 10.2699 5.62714 7.3538 
88 1 13.2429 2.65422 2.58733 
95 1 10.944 4.9533 4.94127 
97 2 13.5562 2.3389 3.9276 
5 1 14.0812 1.81534 14.0908 
14 1 10.0785 5.81847 10.081 
21 1 12.5066 3.39049 12.5053 
30 1 11.6552 4.24179 11.6547 
37 1 15.6136 2.00489 13.8925 
47 1 13.8922 0.28355 13.8925 
51 1 13.8927 2.00431 15.622 
62 1 8.54475 5.6278 10.2692 
72 1 10.2692 7.35252 10.2692 
76 1 10.2692 5.62764 8.54523 
85 1 13.2024 2.6945 13.2057 
94 1 10.9572 4.93973 10.9581 
3 1 14.0813 14.0906 1.81576 
12 1 10.0793 10.0806 5.81868 
19 1 12.5067 12.5055 3.39033 
28 1 11.6553 11.655 4.24156 
35 1 15.6129 13.8925 2.00491 
45 1 13.8934 15.6256 2.00495 
55 1 13.892 13.8926 0.283262 
60 1 8.54472 10.2693 5.62792 
70 1 10.2693 8.54545 5.6277 
80 1 10.269 10.2692 7.35212 
83 1 13.2026 13.2059 2.69429 
92 1 10.9577 10.9581 4.93964 
2 1 14.0806 14.0818 14.0821 
9 1 10.0788 10.0787 10.0794 
18 1 12.5057 12.5055 12.5055 
25 1 11.6551 11.6551 11.6549 
34 1 15.6144 13.8911 13.891 
42 1 13.8914 15.6178 13.8907 
50 1 13.8914 13.8908 15.6175 
57 1 8.54478 10.2692 10.2691 
65 1 10.2692 8.54461 10.269 
73 1 10.2691 10.2691 8.54466 
82 1 13.2029 13.2033 13.2034 
89 1 10.9573 10.9573 10.9576 
ITEM: TIMESTEP
40
ITEM: NUMBER OF ATOMS
97
ITEM: BOX BOUNDS pp pp pp
-6.0381441387197623e-04 1.6525603814413870e+01
-8.4067237129296392e-04 1.6526840672371293e+01
-4.6438212474445890e-04 1.6526464382124747e+01
ITEM: ATOMS id type x y z 
1 1 1.80616 1.81513 1.8148 
10 1 5.81589 5.818 5.81801 
17 1 3.39118 3.38975 3.39008 
26 1 4.24181 4.24124 4.24143 
33 1 0.271923 2.00294 2.00467 
41 1 2.00402 0.282865 2.00441 
49 1 2.00395 2.00417 0.283222 
58 1 7.35237 5.62732 5.62752 
66 1 5.62745 7.35239 5.62764 
74 1 5.62752 5.62748 7.35232 
81 1 2.69075 2.69389 2.69395 
90 1 4.93863 4.93925 4.93935 
4 1 1.81485 1.81526 14.0824 
11 1 5.81791 5.81833 10.0791 
20 1 3.39112 3.39089 12.5057 
27 1 4.24178 4.24158 11.6551 
36 1 0.279583 2.00496 13.891 
46 1 2.00549 0.281797 13.8914 
56 1 2.00579 2.00486 15.618 
59 1 7.35207 5.62759 10.2691 
69 1 5.62772 7.35222 10.2692 
79 1 5.62783 5.62761 8.54497 
84 1 2.69343 2.69349 13.2036 
91 1 4.93937 4.93945 10.9576 
6 1 1.81485 14.0828 1.81571 
13 1 5.81866 10.079 5.81795 
22 1 3.39109 12.506 3.39108 
29 1 4.24174 11.6552 4.24185 
38 1 0.279342 13.8913 2.00518 
48 1 2.00574 15.6185 2.00514 
52 1 2.00538 13.8917 0.281712 
61 1 7.35176 10.2692 5.62781 
71 1 5.62787 8.54517 5.62781 
75 1 5.62779 10.2692 7.35194 
86 1 2.69333 13.2038 2.69375 
93 1 4.93958 10.9577 4.93938 
7 1 1.81519 14.082 14.0819 
16 1 5.81803 10.0792 10.079 
23 1 3.39134 12.5058 12.5055 
32 1 4.2419 11.6551 11.655 
39 1 0.281459 13.8917 13.8914 
43 1 2.00546 15.6169 13.8914 
53 1 2.00546 13.8917 15.616 
64 1 7.35223 10.2694 10.2692 
68 1 5.62764 8.54483 10.2693 
78 1 5.62765 10.2693 8.5446 
87 1 2.69374 13.2034 13.2032 
96 1 4.93963 10.9575 10.9573 
8 1 14.1062 1.7901 1.77803 
15 1 10.0826 5.8149 5.8157 
24 1 12.5297 3.36689 3.53443 
31 1 11.64 4.25674 4.21619 
40 1 15.604 1.99543 1.99644 
44 1 13.9014 0.292419 1.99629 
54 1 13.8989 1.99786 0.290639 
63 1 8.54386 5.62693 5.62721 
67 1 10.27 7.35405 5.62714 
77 1 10.2701 5.62687 7.35374 
88 1 13.2433 2.65365 2.587 
95 1 10.9442 4.95296 4.94107 
97 2 13.5566 2.33829 3.92736 
5 1 14.0817 1.81468 14.0911 
14 1 10.0786 5.81822 10.0811 
21 1 12.5069 3.39 12.5055 
30 1 11.6555 4.24138 11.6549 
37 1 15.6141 2.00426 13.8928 
47 1 13.8926 0.282732 13.8928 
51 1 13.8931 2.00368 15.6224 
62 1 8.54477 5.62753 10.2693 
72 1 10.2693 7.35241 10.2693 
76 1 10.2694 5.62737 8.54525 
85 1 13.2027 2.69393 13.2059 
94 1 10.9574 4.93939 10.9582 
3 1 14.0817 14.0912 1.8154 
12 1 10.0794 10.0808 5.81854 
19 1 12.507 12.5059 3.39006 
28 1 11.6555 11.6553 4.24134 
35 1 15.6135 13.8931 2.00456 
45 1 13.8938 15.6264 2.0046 
55 1 13.8924 13.8932 0.282817 
60 1 8.54473 10.2695 5.62777 
70 1 10.2694 8.54547 5.62755 
80 1 10.2692 10.2694 7.35208 
83 1 13.203 13.2064 2.69398 
92 1 10.9579 10.9584 4.93946 
2 1 14.081 14.0823 14.0824 
9 1 10.0789 10.0789 10.0795 
18 1 12.506 12.506 12.5057 
25 1 11.6553 11.6554 11.6551 
34 1 15.615 13.8916 13.8914 
42 1 13.8918 15.6186 13.891 
50 1 13.8919 13.8914 15.6179 
57 1 8.54479 10.2694 10.2692 
65 1 10.2694 8.54465 10.2691 
73 1 10.2693 10.2693 8.54466 
82 1 13.2032 13.2038 13.2037 
89 1 10.9575 10.9576 10.9577 
ITEM: TIMESTEP
41
ITEM: NUMBER OF ATOMS
97
ITEM: BOX BOUNDS pp pp pp
-6.0381441387197623e-04 1.6525603814413870e+01
-8.4067237129296392e-04 1.6526840672371293e+01
-4.6438212474445890e-04 1.6526464382124747e+01
ITEM: ATOMS id type x y z 
1 1 1.80616 1.81513 1.8148 
10 1 5.81589 5.818 5.81801 
17 1 3.39118 3.38975 3.39008 
26 1 4.24181 4.24124 4.24143 
33 1 0.271923 2.00294 2.00467 
41 1 2.00402 0.282865 2.00441 
49 1 2.00395 2.00417 0.283222 
58 1 7.35237 5.62732 5.62752 
66 1 5.62745 7.35239 5.62764 
74 1 5.62752 5.62748 7.35232 
81 1 2.69075 2.69389 2.69395 
90 1 4.93863 4.93925 4.93935 
4 1 1.81485 1.81526 14.0824 
11 1 5.81791 5.81833 10.0791 
20 1 3.39112 3.39089 12.5057 
27 1 4.24178 4.24158 11.6551 
36 1 0.279583 2.00496 13.891 
46 1 2.00549 0.281797 13.8914 
56 1 2.00579 2.00486 15.618 
59 1 7.35207 5.62759 10.2691 
69 1 5.62772 7.35222 10.2692 
79 1 5.62783 5.62761 8.54497 
84 1 2.69343 2.69349 13.2036 
91 1 4.93937 4.93945 10.9576 
6 1 1.81485 14.0828 1.81571 
13 1 5.81866 10.079 5.81795 
22 1 3.39109 12.506 3.39108 
29 1 4.24174 11.6552 4.24185 
38 1 0.279342 13.8913 2.00518 
48 1 2.00574 15.6185 2.00514 
52 1 2.00538 13.8917 0.281712 
61 1 7.35176 10.2692 5.62781 
71 1 5.62787 8.54517 5.62781 
75 1 5.62779 10.2692 7.35194 
86 1 2.69333 13.2038 2.69375 
93 1 4.93958 10.9577 4.93938 
7 1 1.81519 14.082 14.0819 
16 1 5.81803 10.0792 10.079 
23 1 3.39134 12.5058 12.5055 
32 1 4.2419 11.6551 11.655 
39 1 0.281459 13.8917 13.8914 
43 1 2.00546 15.6169 13.8914 
53 1 2.00546 13.8917 15.616 
64 1 7.35223 10.2694 10.2692 
68 1 5.62764 8.54483 10.2693 
78 1 5.62765 10.2693 8.5446 
87 1 2.69374 13.2034 13.2032 
96 1 4.93963 10.9575 10.9573 
8 1 14.1062 1.7901 1.77803 
15 1 10.0826 5.8149 5.8157 
24 1 12.5297 3.36689 3.53443 
31 1 11.64 4.25674 4.21619 
40 1 15.604 1.99543 1.99644 
44 1 13.9014 0.292419 1.99629 
54 1 13.8989 1.99786 0.290639 
63 1 8.54386 5.62693 5.62721 
67 1 10.27 7.35405 5.62714 
77 1 10.2701 5.62687 7.35374 
88 1 13.2433 2.65365 2.587 
95 1 10.9442 4.95296 4.94107 
97 2 13.5566 2.33829 3.92736 
5 1 14.0817 1.81468 14.0911 
14 1 10.0786 5.81822 10.0811 
21 1 12.5069 3.39 12.5055 
30 1 11.6555 4.24138 11.6549 
37 1 15.6141 2.00426 13.8928 
47 1 13.8926 0.282732 13.8928 
51 1 13.8931 2.00368 15.6224 
62 1 8.54477 5.62753 10.2693 
72 1 10.2693 7.35241 10.2693 
76 1 10.2694 5.62737 8.54525 
85 1 13.2027 2.69393 13.2059 
94 1 10.9574 4.93939 10.9582 
3 1 14.0817 14.0912 1.8154 
12 1 10.0794 10.0808 5.81854 
19 1 12.507 12.5059 3.39006 
28 1 11.6555 11.6553 4.24134 
35 1 15.6135 13.8931 2.00456 
45 1 13.8938 15.6264 2.0046 
55 1 13.8924 13.8932 0.282817 
60 1 8.54473 10.2695 5.62777 
70 1 10.2694 8.54547 5.62755 
80 1 10.2692 10.2694 7.35208 
83 1 13.203 13.2064 2.69398 
92 1 10.9579 10.9584 4.93946 
2 1 14.081 14.0823 14.0824 
9 1 10.0789 10.0789 10.0795 
18 1 12.506 12.506 12.5057 
25 1 11.6553 11.6554 11.6551 
34 1 15.615 13.8916 13.8914 
42 1 13.8918 15.6186 13.891 
50 1 13.8919 13.8914 15.6179 
57 1 8.54479 10.2694 10.2692 
65 1 10.2694 8.54465 10.2691 
73 1 10.2693 10.2693 8.54466 
82 1 13.2032 13.2038 13.2037 
89 1 10.9575 10.9576 10.9577 
ITEM: TIMESTEP
42
ITEM: NUMBER OF ATOMS
97
ITEM: BOX BOUNDS pp pp pp
-6.0381441387197623e-04 1.6525603814413870e+01
-8.4067237129296392e-04 1.6526840672371293e+01
-4.6438212474445890e-04 1.6526464382124747e+01
ITEM: ATOMS id type x y z 
1 1 1.80616 1.81513 1.8148 
10 1 5.81589 5.818 5.81801 
17 1 3.39118 3.38975 3.39008 
26 1 4.24181 4.24124 4.24143 
33 1 0.271923 2.00294 2.00467 
41 1 2.00402 0.282865 2.00441 
49 1 2.00395 2.00417 0.283222 
58 1 7.35237 5.62732 5.62752 
66 1 5.62745 7.35239 5.62764 
74 1 5.62752 5.62748 7.35232 
81 1 2.69075 2.69389 2.69395 
90 1 4.93863 4.93925 4.93935 
4 1 1.81485 1.81526 14.0824 
11 1 5.81791 5.81833 10.0791 
20 1 3.39112 3.39089 12.5057 
27 1 4.24178 4.24158 11.6551 
36 1 0.279583 2.00496 13.891 
46 1 2.00549 0.281797 13.8914 
56 1 2.00579 2.00486 15.618 
59 1 7.35207 5.62759 10.2691 
69 1 5.62772 7.35222 10.2692 
79 1 5.62783 5.62761 8.54497 
84 1 2.69343 2.69349 13.2036 
91 1 4.93937 4.93945 10.9576 
6 1 1.81485 14.0828 1.81571 
13 1 5.81866 10.079 5.81795 
22 1 3.39109 12.506 3.39108 
29 1 4.24174 11.6552 4.24185 
38 1 0.279342 13.8913 2.00518 
48 1 2.00574 15.6185 2.00514 
52 1 2.00538 13.8917 0.281712 
61 1 7.35176 10.2692 5.62781 
71 1 5.62787 8.54517 5.62781 
75 1 5.62779 10.2692 7.35194 
86 1 2.69333 13.2038 2.69375 
93 1 4.93958 10.9577 4.93938 
7 1 1.81519 14.082 14.0819 
16 1 5.81803 10.0792 10.079 
23 1 3.39134 12.5058 12.5055 
32 1 4.2419 11.6551 11.655 
39 1 0.281459 13.8917 13.8914 
43 1 2.00546 15.6169 13.8914 
53 1 2.00546 13.8917 15.616 
64 1 7.35223 10.2694 10.2692 
68 1 5.62764 8.54483 10.2693 
78 1 5.62765 10.2693 8.5446 
87 1 2.69374 13.2034 13.2032 
96 1 4.93963 10.9575 10.9573 
8 1 14.1062 1.7901 1.77803 
15 1 10.0826 5.8149 5.8157 
24 1 12.5297 3.36689 3.53443 
31 1 11.64 4.25674 4.21619 
40 1 15.604 1.99543 1.99644 
44 1 13.9014 0.292419 1.99629 
54 1 13.8989 1.99786 0.290639 
63 1 8.54386 5.62693 5.62721 
67 1 10.27 7.35405 5.62714 
77 1 10.2701 5.62687 7.35374 
88 1 13.2433 2.65365 2.587 
95 1 10.9442 4.95296 4.94107 
97 2 13.5566 2.33829 3.92736 
5 1 14.0817 1.81468 14.0911 
14 1 10.0786 5.81822 10.0811 
21 1 12.5069 3.39 12.5055 
30 1 11.6555 4.24138 11.6549 
37 1 15.6141 2.00426 13.8928 
47 1 13.8926 0.282732 13.8928 
51 1 13.8931 2.00368 15.6224 
62 1 8.54477 5.62753 10.2693 
72 1 10.2693 7.35241 10.2693 
76 1 10.2694 5.62737 8.54525 
85 1 13.2027 2.69393 13.2059 
94 1 10.9574 4.93939 10.9582 
3 1 14.0817 14.0912 1.8154 
12 1 10.0794 10.0808 5.81854 
19 1 12.507 12.5059 3.39006 
28 1 11.6555 11.6553 4.24134 
35 1 15.6135 13.8931 2.00456 
45 1 13.8938 15.6264 2.0046 
55 1 13.8924 13.8932 0.282817 
60 1 8.54473 10.2695 5.62777 
70 1 10.2694 8.54547 5.62755 
80 1 10.2692 10.2694 7.35208 
83 1 13.203 13.2064 2.69398 
92 1 10.9579 10.9584 4.93946 
2 1 14.081 14.0823 14.0824 
9 1 10.0789 10.0789 10.0795 
18 1 12.506 12.506 12.5057 
25 1 11.6553 11.6554 11.6551 
34 1 15.615 13.8916 13.8914 
42 1 13.8918 15.6186 13.891 
50 1 13.8919 13.8914 15.6179 
57 1 8.54479 10.2694 10.2692 
65 1 10.2694 8.54465 10.2691 
73 1 10.2693 10.2693 8.54466 
82 1 13.2032 13.2038 13.2037 
89 1 10.9575 10.9576 10.9577 
ITEM: TIMESTEP
43
ITEM: NUMBER OF ATOMS
97
ITEM: BOX BOUNDS pp pp pp
-6.0381126174802364e-04 1.6525603811261746e+01
-8.4067022377949544e-04 1.6526840670223780e+01
-4.6437935283256390e-04 1.6526464379352834e+01
ITEM: ATOMS id type x y z 
1 1 1.80616 1.81513 1.8148 
10 1 5.81589 5.818 5.81801 
17 1 3.39118 3.38975 3.39008 
26 1 4.24181 4.24124 4.24143 
33 1 0.271923 2.00294 2.00467 
41 1 2.00402 0.282865 2.00441 
49 1 2.00395 2.00417 0.283222 
58 1 7.35237 5.62732 5.62752 
66 1 5.62745 7.35239 5.62764 
74 1 5.62752 5.62748 7.35232 
81 1 2.69075 2.69389 2.69395 
90 1 4.93863 4.93925 4.93935 
4 1 1.81485 1.81526 14.0824 
11 1 5.81791 5.81833 10.0791 
20 1 3.39112 3.39089 12.5057 
27 1 4.24178 4.24158 11.6551 
36 1 0.279583 2.00496 13.891 
46 1 2.00549 0.281797 13.8914 
56 1 2.00579 2.00486 15.618 
59 1 7.35207 5.62759 10.2691 
69 1 5.62772 7.35222 10.2692 
79 1 5.62783 5.62761 8.54497 
84 1 2.69343 2.69349 13.2036 
91 1 4.93937 4.93945 10.9576 
6 1 1.81485 14.0828 1.81571 
13 1 5.81866 10.079 5.81795 
22 1 3.39109 12.506 3.39108 
29 1 4.24174 11.6552 4.24185 
38 1 0.279342 13.8913 2.00518 
48 1 2.00574 15.6185 2.00514 
52 1 2.00538 13.8917 0.281712 
61 1 7.35176 10.2692 5.62781 
71 1 5.62787 8.54517 5.62781 
75 1 5.62779 10.2692 7.35194 
86 1 2.69333 13.2038 2.69375 
93 1 4.93958 10.9577 4.93938 
7 1 1.81519 14.082 14.0819 
16 1 5.81803 10.0792 10.079 
23 1 3.39134 12.5058 12.5055 
32 1 4.2419 11.6551 11.655 
39 1 0.281459 13.8917 13.8914 
43 1 2.00546 15.6169 13.8914 
53 1 2.00546 13.8917 15.616 
64 1 7.35223 10.2694 10.2692 
68 1 5.62764 8.54483 10.2693 
78 1 5.62765 10.2693 8.5446 
87 1 2.69374 13.2034 13.2032 
96 1 4.93963 10.9575 10.9573 
8 1 14.1062 1.7901 1.77803 
15 1 10.0826 5.8149 5.8157 
24 1 12.5297 3.36689 3.53443 
31 1 11.64 4.25674 4.21619 
40 1 15.604 1.99543 1.99644 
44 1 13.9014 0.292419 1.99629 
54 1 13.8989 1.99786 0.290639 
63 1 8.54386 5.62693 5.62721 
67 1 10.27 7.35405 5.62714 
77 1 10.2701 5.62687 7.35374 
88 1 13.2433 2.65365 2.587 
95 1 10.9442 4.95296 4.94107 
97 2 13.5566 2.33829 3.92736 
5 1 14.0817 1.81468 14.0911 
14 1 10.0786 5.81822 10.0811 
21 1 12.5069 3.39 12.5055 
30 1 11.6555 4.24138 11.6549 
37 1 15.6141 2.00426 13.8928 
47 1 13.8926 0.282732 13.8928 
51 1 13.8931 2.00368 15.6224 
62 1 8.54477 5.62753 10.2693 
72 1 10.2693 7.35241 10.2693 
76 1 10.2694 5.62737 8.54525 
85 1 13.2027 2.69393 13.2059 
94 1 10.9574 4.93939 10.9582 
3 1 14.0817 14.0912 1.8154 
12 1 10.0794 10.0808 5.81854 