LAMMPS (3 Mar 2020)
# Alpha
clear
units		real
dimension 3
boundary        p p p
atom_style	charge
newton on
read_data       H_19.lmp
  triclinic box = (0 0 0) to (13.552 11.7355 22.15) with tilt (-6.7755 0 0)
  2 by 2 by 2 MPI processor grid
  reading atoms ...
  161 atoms
  read_data CPU = 0.0339549 secs

timestep 0.25

# ---------- Define Interatomic Potential ---------------------
pair_style      reax/c NULL checkqeq no
pair_coeff      * * ffield.reax C H
fix             2 all qeq/reax 1 0.0 10.0 1.0e-6 reax/c

#------------ Equilibration of the system -------------------------
reset_timestep 0

dump 1 all custom 10 min.lammpstrj id type x y z

minimize 1.0e-8 1.0e-8 100000 100000
WARNING: Using 'neigh_modify every 1 delay 0 check yes' setting during minimization (../min.cpp:190)
WARNING: Total cutoff < 2*bond cutoff. May need to use an increased neighbor list skin. (../pair_reaxc.cpp:413)
Neighbor list info ...
  update every 1 steps, delay 0 steps, check yes
  max neighbors/atom: 2000, page size: 100000
  master list distance cutoff = 9.5
  ghost atom cutoff = 9.5
  binsize = 4.75, bins = 5 3 5
  2 neighbor lists, perpetual/occasional/extra = 2 0 0
  (1) pair reax/c, perpetual
      attributes: half, newton off, ghost
      pair build: half/bin/newtoff/ghost
      stencil: half/ghost/bin/3d/newtoff
      bin: standard
  (2) fix qeq/reax, perpetual, copy from (1)
      attributes: half, newton off, ghost
      pair build: copy
      stencil: none
      bin: none
Per MPI rank memory allocation (min/avg/max) = 22.39 | 23.37 | 24.29 Mbytes
Step Temp E_pair E_mol TotEng Press 
       0            0    -25525.03            0    -25525.03    97140.152 
     193            0   -29143.101            0   -29143.101    34070.575 
Loop time of 9.78086 on 8 procs for 193 steps with 161 atoms

99.2% CPU use with 8 MPI tasks x no OpenMP threads

Minimization stats:
  Stopping criterion = energy tolerance
  Energy initial, next-to-last, final = 
        -25525.0303205     -29143.1011115      -29143.101267
  Force two-norm initial, final = 4597.37 89.9824
  Force max component initial, final = 504.288 25.0875
  Final line search alpha, max atom move = 0.00107791 0.0270419
  Iterations, force evaluations = 193 1213

MPI task timing breakdown:
Section |  min time  |  avg time  |  max time  |%varavg| %total
---------------------------------------------------------------
Pair    | 7.3617     | 7.7514     | 8.0766     |  10.3 | 79.25
Neigh   | 0          | 0          | 0          |   0.0 |  0.00
Comm    | 0.05718    | 0.38155    | 0.77111    |  46.4 |  3.90
Output  | 0.00085257 | 0.0010412  | 0.0014973  |   0.6 |  0.01
Modify  | 1.6323     | 1.6325     | 1.6327     |   0.0 | 16.69
Other   |            | 0.01428    |            |       |  0.15

Nlocal:    20.125 ave 32 max 4 min
Histogram: 2 0 1 0 1 0 0 0 1 3
Nghost:    840.375 ave 885 max 792 min
Histogram: 2 2 0 0 0 0 0 0 1 3
Neighs:    2749.62 ave 4282 max 590 min
Histogram: 2 0 0 1 1 0 0 0 1 3

Total # of neighbors = 21997
Ave neighs/atom = 136.627
Neighbor list builds = 0
Dangerous builds = 0

###
min_style cg
minimize 1.0e-8 1.0e-8 100000 100000
WARNING: Using 'neigh_modify every 1 delay 0 check yes' setting during minimization (../min.cpp:190)
WARNING: Total cutoff < 2*bond cutoff. May need to use an increased neighbor list skin. (../pair_reaxc.cpp:413)
Per MPI rank memory allocation (min/avg/max) = 22.39 | 23.37 | 24.29 Mbytes
Step Temp E_pair E_mol TotEng Press 
     193            0   -29143.101            0   -29143.101    34070.575 
     563            0   -29171.497            0   -29171.497    33142.741 
Loop time of 23.9102 on 8 procs for 370 steps with 161 atoms

99.3% CPU use with 8 MPI tasks x no OpenMP threads

Minimization stats:
  Stopping criterion = energy tolerance
  Energy initial, next-to-last, final = 
         -29143.101267     -29171.4973093     -29171.4973111
  Force two-norm initial, final = 89.9824 29.6819
  Force max component initial, final = 25.0875 8.35737
  Final line search alpha, max atom move = 0.000121419 0.00101474
  Iterations, force evaluations = 370 2917

MPI task timing breakdown:
Section |  min time  |  avg time  |  max time  |%varavg| %total
---------------------------------------------------------------
Pair    | 18.303     | 19.195     | 19.987     |  15.9 | 80.28
Neigh   | 0          | 0          | 0          |   0.0 |  0.00
Comm    | 0.18436    | 0.97322    | 1.8641     |  70.4 |  4.07
Output  | 0.0018331  | 0.0021065  | 0.0029094  |   0.7 |  0.01
Modify  | 3.7058     | 3.7063     | 3.7068     |   0.0 | 15.50
Other   |            | 0.03321    |            |       |  0.14

Nlocal:    20.125 ave 32 max 4 min
Histogram: 2 0 1 1 0 0 0 0 1 3
Nghost:    876.125 ave 920 max 830 min
Histogram: 3 1 0 0 0 0 0 0 0 4
Neighs:    2731.38 ave 4281 max 580 min
Histogram: 2 0 0 2 0 0 0 0 1 3

Total # of neighbors = 21851
Ave neighs/atom = 135.72
Neighbor list builds = 0
Dangerous builds = 0

###
fix 1 all box/relax aniso 0.0
min_style cg
minimize 1.0e-8 1.0e-8 100000 100000
WARNING: Using 'neigh_modify every 1 delay 0 check yes' setting during minimization (../min.cpp:190)
WARNING: Total cutoff < 2*bond cutoff. May need to use an increased neighbor list skin. (../pair_reaxc.cpp:413)
Per MPI rank memory allocation (min/avg/max) = 22.39 | 23.37 | 24.29 Mbytes
Step Temp E_pair E_mol TotEng Press Volume 
     563            0   -29171.497            0   -29171.497    33142.741    3522.7279 
     588            0   -29175.761            0   -29175.761   -619.87724    3525.0299 
Loop time of 0.394901 on 8 procs for 25 steps with 161 atoms

99.3% CPU use with 8 MPI tasks x no OpenMP threads

Minimization stats:
  Stopping criterion = energy tolerance
  Energy initial, next-to-last, final = 
        -29171.4973111     -29175.7610722     -29175.7610725
  Force two-norm initial, final = 3712.89 683.689
  Force max component initial, final = 3195.97 449.865
  Final line search alpha, max atom move = 1.69592e-12 7.62936e-10
  Iterations, force evaluations = 25 51

MPI task timing breakdown:
Section |  min time  |  avg time  |  max time  |%varavg| %total
---------------------------------------------------------------
Pair    | 0.32293    | 0.33998    | 0.35549    |   2.4 | 86.09
Neigh   | 0          | 0          | 0          |   0.0 |  0.00
Comm    | 0.0020937  | 0.017561   | 0.034588   |  10.4 |  4.45
Output  | 8.3186e-05 | 9.7843e-05 | 0.00014144 |   0.0 |  0.02
Modify  | 0.035459   | 0.035471   | 0.035477   |   0.0 |  8.98
Other   |            | 0.001786   |            |       |  0.45

Nlocal:    20.125 ave 32 max 4 min
Histogram: 2 0 1 1 0 0 0 0 0 4
Nghost:    874.625 ave 923 max 822 min
Histogram: 3 1 0 0 0 0 0 0 0 4
Neighs:    2726 ave 4261 max 584 min
Histogram: 2 0 0 2 0 0 0 0 0 4

Total # of neighbors = 21808
Ave neighs/atom = 135.453
Neighbor list builds = 0
Dangerous builds = 0

unfix 1
###
min_style cg
minimize 1.0e-8 1.0e-8 100000 100000
WARNING: Using 'neigh_modify every 1 delay 0 check yes' setting during minimization (../min.cpp:190)
WARNING: Total cutoff < 2*bond cutoff. May need to use an increased neighbor list skin. (../pair_reaxc.cpp:413)
Per MPI rank memory allocation (min/avg/max) = 22.39 | 23.37 | 24.29 Mbytes
Step Temp E_pair E_mol TotEng Press 
     588            0   -29175.761            0   -29175.761   -619.87724 
     610            0   -29177.749            0   -29177.749    32765.284 
Loop time of 1.67204 on 8 procs for 22 steps with 161 atoms

99.3% CPU use with 8 MPI tasks x no OpenMP threads

Minimization stats:
  Stopping criterion = energy tolerance
  Energy initial, next-to-last, final = 
        -29175.7610725     -29177.7493619     -29177.7493738
  Force two-norm initial, final = 391.598 13.4482
  Force max component initial, final = 42.7807 2.82058
  Final line search alpha, max atom move = 0.000323209 0.000911638
  Iterations, force evaluations = 22 201

MPI task timing breakdown:
Section |  min time  |  avg time  |  max time  |%varavg| %total
---------------------------------------------------------------
Pair    | 1.2671     | 1.3365     | 1.3966     |   4.7 | 79.93
Neigh   | 0          | 0          | 0          |   0.0 |  0.00
Comm    | 0.014556   | 0.074466   | 0.14391    |  19.8 |  4.45
Output  | 0.00010062 | 0.00011598 | 0.00016012 |   0.0 |  0.01
Modify  | 0.25834    | 0.2584     | 0.25845    |   0.0 | 15.45
Other   |            | 0.002547   |            |       |  0.15

Nlocal:    20.125 ave 32 max 4 min
Histogram: 2 0 1 1 0 0 0 0 0 4
Nghost:    874.625 ave 923 max 822 min
Histogram: 3 1 0 0 0 0 0 0 0 4
Neighs:    2722.88 ave 4257 max 583 min
Histogram: 2 0 0 2 0 0 0 0 0 4

Total # of neighbors = 21783
Ave neighs/atom = 135.298
Neighbor list builds = 0
Dangerous builds = 0

###
fix 1 all box/relax aniso 0.0
min_style cg
minimize 1.0e-8 1.0e-8 100000 100000
WARNING: Using 'neigh_modify every 1 delay 0 check yes' setting during minimization (../min.cpp:190)
WARNING: Total cutoff < 2*bond cutoff. May need to use an increased neighbor list skin. (../pair_reaxc.cpp:413)
Per MPI rank memory allocation (min/avg/max) = 22.39 | 23.37 | 24.29 Mbytes
Step Temp E_pair E_mol TotEng Press Volume 
     610            0   -29177.749            0   -29177.749    32765.284    3525.0299 
     665            0   -29185.065            0   -29185.065    5925.9381    3528.7463 
Loop time of 0.987562 on 8 procs for 55 steps with 161 atoms

99.2% CPU use with 8 MPI tasks x no OpenMP threads

Minimization stats:
  Stopping criterion = linesearch alpha is zero
  Energy initial, next-to-last, final = 
        -29177.7493738     -29185.0648618     -29185.0648618
  Force two-norm initial, final = 3628.49 672.672
  Force max component initial, final = 3128.53 432.254
  Final line search alpha, max atom move = 1.70887e-14 7.38666e-12
  Iterations, force evaluations = 55 129

MPI task timing breakdown:
Section |  min time  |  avg time  |  max time  |%varavg| %total
---------------------------------------------------------------
Pair    | 0.80643    | 0.84928    | 0.88646    |   3.7 | 86.00
Neigh   | 0          | 0          | 0          |   0.0 |  0.00
Comm    | 0.0063928  | 0.043626   | 0.086505   |  16.3 |  4.42
Output  | 0.00021162 | 0.00024843 | 0.00035764 |   0.0 |  0.03
Modify  | 0.090341   | 0.090369   | 0.090406   |   0.0 |  9.15
Other   |            | 0.00404    |            |       |  0.41

Nlocal:    20.125 ave 32 max 4 min
Histogram: 2 0 1 1 0 0 0 0 0 4
Nghost:    874.625 ave 923 max 822 min
Histogram: 3 1 0 0 0 0 0 0 0 4
Neighs:    2723.62 ave 4259 max 583 min
Histogram: 2 0 0 2 0 0 0 0 0 4

Total # of neighbors = 21789
Ave neighs/atom = 135.335
Neighbor list builds = 0
Dangerous builds = 0

unfix 1
###
min_style cg
minimize 1.0e-8 1.0e-8 100000 100000
WARNING: Using 'neigh_modify every 1 delay 0 check yes' setting during minimization (../min.cpp:190)
WARNING: Total cutoff < 2*bond cutoff. May need to use an increased neighbor list skin. (../pair_reaxc.cpp:413)
Per MPI rank memory allocation (min/avg/max) = 22.39 | 23.37 | 24.29 Mbytes
Step Temp E_pair E_mol TotEng Press 
     665            0   -29185.065            0   -29185.065    5925.9381 
     714            0   -29188.587            0   -29188.587    31011.014 
Loop time of 3.41293 on 8 procs for 49 steps with 161 atoms

99.3% CPU use with 8 MPI tasks x no OpenMP threads

Minimization stats:
  Stopping criterion = energy tolerance
  Energy initial, next-to-last, final = 
        -29185.0648618     -29188.5867149     -29188.5867602
  Force two-norm initial, final = 375.227 14.7035
  Force max component initial, final = 43.7373 2.68306
  Final line search alpha, max atom move = 0.000285311 0.000765506
  Iterations, force evaluations = 49 415

MPI task timing breakdown:
Section |  min time  |  avg time  |  max time  |%varavg| %total
---------------------------------------------------------------
Pair    | 2.569      | 2.7295     | 2.8543     |   6.9 | 79.98
Neigh   | 0          | 0          | 0          |   0.0 |  0.00
Comm    | 0.024376   | 0.14919    | 0.30964    |  29.6 |  4.37
Output  | 0.00021606 | 0.00025101 | 0.00035397 |   0.0 |  0.01
Modify  | 0.52922    | 0.52927    | 0.52934    |   0.0 | 15.51
Other   |            | 0.004716   |            |       |  0.14

Nlocal:    20.125 ave 32 max 4 min
Histogram: 2 0 1 1 0 0 0 0 0 4
Nghost:    870.875 ave 920 max 820 min
Histogram: 3 1 0 0 0 0 0 0 1 3
Neighs:    2718.5 ave 4248 max 581 min
Histogram: 2 0 0 2 0 0 0 0 0 4

Total # of neighbors = 21748
Ave neighs/atom = 135.081
Neighbor list builds = 0
Dangerous builds = 0

undump 1
#############
#----------- Thermo ------------
reset_timestep 0
thermo  200

thermo_style    custom step temp etotal ke pe press
velocity all create 300 12345 mom yes rot yes
fix 1 all npt temp 300 300 25.0 iso 0.0 0.0 250.0

variable vpe equal pe
variable vtemp equal temp
variable vstep equal step

fix output all print 2500 "${vstep} ${vtemp} ${vpe}" file temp-tpdh-Pt.dat screen no

dump 1 all custom 2500 thermo-tpdh-Pt.lammpstrj id type x y z

run 1000000
WARNING: Total cutoff < 2*bond cutoff. May need to use an increased neighbor list skin. (../pair_reaxc.cpp:413)
Per MPI rank memory allocation (min/avg/max) = 21.28 | 22.26 | 23.18 Mbytes
Step Temp TotEng KinEng PotEng Press 
       0          300   -29045.508    143.07888   -29188.587    32864.494 
     200    367.30765   -29089.635    175.17989   -29264.815    7995.1692 
     400    334.58965   -29137.728    159.57571   -29297.304   -774.08013 
     600     288.2536   -29170.932    137.47668   -29308.409    7694.2054 
     800    316.93992   -29167.221    151.15803   -29318.379    4757.4143 
    1000    299.19391   -29143.774    142.69444   -29286.468    15762.039 
    1200    262.87022   -29157.429    125.37059   -29282.799    16915.314 
    1400    284.23226   -29138.589    135.55878   -29274.148    25425.353 
    1600    312.05072   -29123.293    148.82623   -29272.119   -19465.035 
    1800    230.20415   -29145.807    109.79118   -29255.598    1431.0095 
    2000    319.78301   -29118.695    152.51399   -29271.209   -11519.944 
    2200     290.7274   -29114.888     138.6565   -29253.544    18717.904 
    2400    326.97957   -29113.074    155.94624    -29269.02    372.43628 
    2600    281.16968    -29119.02    134.09815   -29253.118    6036.4599 
    2800    312.92508   -29102.391    149.24324   -29251.634   -6238.8181 
    3000    278.23054   -29116.704    132.69638     -29249.4    10198.643 
    3200    303.17094   -29098.588     144.5912   -29243.179    19519.174 
    3400    313.81181   -29081.282    149.66614   -29230.948     813.0966 
    3600    282.09456   -29120.105    134.53925   -29254.644   -37207.489 
    3800     317.8649   -29099.994    151.59918   -29251.593    -14388.77 
    4000    289.55304   -29090.578    138.09642   -29228.674   -25548.621 
    4200    286.04193   -29119.852    136.42187   -29256.274    14971.856 
    4400    298.59617    -29106.31    142.40935   -29248.719   -2484.4604 
    4600    321.69813   -29092.188    153.42736   -29245.616   -2932.5154 
    4800    265.17941   -29121.616    126.47191   -29248.088   -8305.3519 
    5000    312.72443   -29107.397    149.14754   -29256.545   -7572.2337 
    5200    311.44787   -29113.559    148.53871   -29262.098   -29.559966 
    5400    290.54634   -29123.906    138.57015   -29262.476   -6530.2706 
    5600      317.636   -29094.761    151.49001   -29246.251   -24681.372 
    5800    296.97618   -29120.622    141.63673   -29262.259    2767.9473 
    6000    318.26849   -29139.204    151.79167   -29290.996   -5223.0327 
    6200    279.87502   -29136.372    133.48068   -29269.853   -15272.842 
    6400    319.92496   -29127.205    152.58169   -29279.787   -25536.194 
    6600    288.93702   -29157.947    137.80262   -29295.749   -27576.726 
    6800    334.38962   -29127.152    159.48031   -29286.633   -29356.312 
    7000    285.05406   -29145.868    135.95072   -29281.819    33696.048 
    7200     277.2875   -29143.847    132.24662   -29276.094    5294.9073 
    7400    301.44425   -29117.719    143.76769   -29261.487   -25206.333 
    7600     335.1947   -29101.118    159.86428   -29260.983   -34728.093 
    7800     287.8407   -29146.306    137.27975   -29283.585    8241.7995 
    8000    285.22538   -29147.657    136.03243   -29283.689   -17862.341 
    8200    317.40255   -29125.732    151.37867   -29277.111    17906.149 
    8400    273.29347   -29156.248    130.34175    -29286.59     17021.79 
    8600     297.6929   -29144.213    141.97856   -29286.191       9991.3 
    8800    336.23178   -29112.192    160.35889   -29272.551   -2060.7955 
    9000    320.99266   -29118.292     153.0909   -29271.383    4843.0937 
    9200    297.17266   -29136.978    141.73044   -29278.709   -790.83501 
    9400     318.7006   -29141.508    151.99775   -29293.506   -28027.332 
    9600     282.7152   -29160.548    134.83525   -29295.383    17716.971 
    9800    314.94325   -29128.392    150.20576   -29278.598    9078.8389 
   10000    307.74829   -29137.994    146.77427   -29284.768    21293.494 
   10200    255.26974   -29164.028     121.7457   -29285.774     2548.753 
   10400    285.74787   -29129.779    136.28162   -29266.061    27624.717 
   10600    304.25457   -29124.706    145.10801   -29269.814   -2466.0065 
   10800    304.14497   -29156.592    145.05574   -29301.648    8681.6487 
   11000     325.7459    -29132.66    155.35786   -29288.018     10714.43 
   11200    323.30282   -29127.201    154.19269   -29281.394   -44270.256 
   11400    280.41084   -29139.652    133.73623   -29273.388    3324.7031 
   11600    316.45883    -29118.51    150.92859   -29269.439    8451.7508 
   11800    304.73532   -29146.305     145.3373   -29291.643    36458.436 
   12000    279.56871   -29151.395     133.3346    -29284.73    15874.985 
   12200    321.90288   -29116.688    153.52501   -29270.213   -3737.6637 
   12400    287.03673   -29128.645    136.89631   -29265.542   -29792.368 
   12600     313.5591   -29140.616    149.54562   -29290.162    5907.7728 
   12800    283.51024   -29166.372    135.21443   -29301.587    7229.4331 
   13000    275.45207   -29132.546    131.37125   -29263.918    13994.177 
   13200    312.93003    -29120.53     149.2456   -29269.775    26291.806 
   13400    279.83712   -29148.406    133.46261   -29281.869   -92.567113 
   13600    323.19114   -29127.847    154.13942   -29281.986    9310.2947 
   13800    292.10996   -29132.419    139.31589   -29271.735    4357.9364 
   14000    305.28243   -29127.927    145.59823   -29273.525     2243.285 
   14200    280.61102   -29145.837     133.8317   -29279.668    22412.044 
   14400     284.4392   -29122.231    135.65747   -29257.889    36923.411 
   14600    315.77891   -29124.315    150.60431   -29274.919    27505.937 
   14800    276.29603   -29142.892    131.77376   -29274.666    3461.8742 
   15000    251.78034   -29152.742     120.0815   -29272.823     4835.107 
   15200    310.37118   -29121.368     148.0252   -29269.393   -13369.797 
   15400    289.48635   -29131.457    138.06461   -29269.521    28919.523 
   15600    267.78998   -29147.272    127.71697   -29274.989   -20727.557 
   15800    322.06181   -29116.573    153.60081   -29270.174    3028.2982 
   16000    263.68611   -29135.466    125.75971   -29261.226    4881.7492 
   16200    298.54636   -29153.418     142.3856   -29295.803    21091.481 
   16400    299.80253   -29117.206     142.9847   -29260.191    4056.8716 
   16600    318.99308   -29116.506    152.13724   -29268.643    25074.224 
   16800    294.16305   -29146.483    140.29507   -29286.778    19106.959 
   17000    291.75902   -29115.185    139.14852   -29254.333    10330.457 
   17200    309.64345   -29112.321    147.67813       -29260    1630.9561 
   17400    293.58601    -29137.82    140.01986   -29277.839    30394.593 
   17600    313.47397   -29110.721    149.50502   -29260.226   -2298.2471 
   17800    295.41228   -29119.426    140.89087   -29260.316   -1815.4199 
   18000    335.62281   -29124.385    160.06846   -29284.454   -32161.573 
   18200    292.67699   -29124.316    139.58632   -29263.903    38793.702 
   18400    296.99434   -29130.855    141.64539   -29272.501   -7844.7751 
   18600    327.69574   -29121.367     156.2878   -29277.655     11349.44 
   18800    272.37234   -29149.364    129.90243   -29279.267     45476.98 
   19000    292.22764   -29127.856    139.37202   -29267.228    9533.8181 
   19200    296.76312   -29130.255    141.53512    -29271.79    9875.3261 
   19400    293.57651   -29161.039    140.01533   -29301.054    4030.8724 
   19600    319.41342   -29136.309    152.33772   -29288.647   -4226.9334 
   19800    313.08755   -29138.031    149.32072   -29287.351    -12567.26 
   20000    260.80377   -29160.061    124.38504   -29284.446    4042.9412 
   20200    335.11291   -29126.342    159.82527   -29286.167   -670.48927 
   20400    299.57037   -29149.543    142.87398   -29292.417   -17285.988 
   20600    291.29205   -29154.186     138.9258   -29293.111    4987.0826 
   20800      287.683   -29141.803    137.20454   -29279.008   -38490.843 
   21000    274.48723   -29133.727    130.91109   -29264.638   -11053.039 
   21200    336.46485   -29099.023    160.47005   -29259.493   -25614.737 
   21400    309.64305   -29121.161    147.67794   -29268.839   -39995.719 
   21600    288.38717   -29142.735    137.54038   -29280.276   -5667.9141 
   21800     275.9094   -29164.308    131.58936   -29295.898   -29677.702 
   22000    297.42505   -29159.334    141.85081   -29301.185    25469.564 
   22200    278.05437   -29144.254    132.61236   -29276.866    46773.764 
   22400    305.41335   -29141.212    145.66067   -29286.872    6340.7603 
   22600    363.53616   -29117.693    173.38116   -29291.074    14983.361 
   22800    311.42473   -29146.888    148.52767   -29295.416    4073.3814 
   23000     320.5876   -29126.344    152.89772   -29279.242   -48808.743 
   23200    319.33277   -29123.906    152.29925   -29276.205     27746.73 
   23400    284.80224   -29140.808    135.83062   -29276.638   -7652.2875 
   23600    286.96863   -29125.199    136.86383   -29262.062    28039.756 
   23800    325.16084   -29107.981    155.07883    -29263.06   -10795.994 
   24000    280.19287   -29143.058    133.63227    -29276.69   -11392.432 
   24200    321.58672   -29126.949    153.37423   -29280.323    19236.605 
   24400    296.64218   -29143.347    141.47744   -29284.824    14369.815 
   24600    295.40977   -29148.696    140.88966   -29289.586   -7372.4378 
   24800    319.67254   -29135.603     152.4613   -29288.064   -21470.103 
   25000    280.20215   -29143.537     133.6367   -29277.174   -21291.623 
   25200     310.4513   -29125.769    148.06342   -29273.833   -17860.092 
   25400    299.43343   -29138.466    142.80867   -29281.274    27803.579 
   25600    295.66572   -29146.689    141.01173   -29287.701    -10963.03 
   25800    279.81976   -29126.063    133.45433   -29259.518   -6487.3103 
   26000    348.07662   -29092.213    166.00804   -29258.221   -37431.862 
   26200    278.28752    -29140.55    132.72356   -29273.274   -18262.879 
   26400    306.11061   -29125.921    145.99322   -29271.914    31063.066 
   26600    294.48729   -29135.596    140.44971   -29276.046    614.37469 
   26800    273.77026   -29149.607    130.56914   -29280.176   -43686.732 
   27000    341.06615   -29130.328    162.66455   -29292.992   -18460.029 
   27200    342.86769   -29098.229    163.52375   -29261.753    -16475.15 
   27400    337.92804   -29126.694    161.16789   -29287.862   -20455.684 
   27600    281.34642   -29133.678    134.18244   -29267.861    -47986.81 
   27800    292.90259   -29117.652    139.69392   -29257.346    26771.938 
   28000    293.34101   -29131.686    139.90301   -29271.589    -10210.61 
   28200    278.27226   -29135.286    132.71628   -29268.002   -10048.928 
   28400    321.31677   -29120.573    153.24548   -29273.818    4674.5561 
   28600    329.24051   -29108.821    157.02455   -29265.845   -20313.289 
   28800    291.52075   -29132.823    139.03488   -29271.858    15110.118 
   29000    299.43983   -29145.841    142.81172   -29288.653   -64915.433 
   29200    331.57918   -29108.378    158.13993   -29266.518    11457.748 
   29400    311.55865   -29128.369    148.59155   -29276.961   -2327.4567 
   29600    300.12812   -29147.694    143.13999   -29290.834    7843.1983 
   29800    264.17379   -29158.547     125.9923   -29284.539   -7198.3662 
   30000    312.16597    -29129.22     148.8812   -29278.102   -28068.859 
   30200    320.46799   -29148.748    152.84067   -29301.589   -1874.3795 
   30400    257.43146   -29140.919    122.77669   -29263.695    11246.518 
   30600    318.26848   -29122.002    151.79166   -29273.793    102.09434 
   30800     289.6803   -29145.389    138.15711   -29283.546    -32820.57 
   31000    298.31512   -29153.211    142.27531   -29295.487   -5006.5626 
   31200    313.61947   -29142.235    149.57441   -29291.809   -4739.0115 
   31400    301.02376   -29149.504    143.56714   -29293.071   -10288.001 
   31600    288.26036   -29143.524     137.4799   -29281.004   -29644.307 
   31800    345.48635   -29126.059    164.77267   -29290.831     20511.78 
   32000    275.94832   -29152.222    131.60793   -29283.829    9478.2525 
   32200    297.41064    -29124.71    141.84394   -29266.554   -31348.924 
   32400    316.12223   -29122.828    150.76805   -29273.596   -28863.885 
   32600     285.9356   -29142.084    136.37115   -29278.455    3126.9276 
   32800    319.18935   -29111.989    152.23085    -29264.22    -41521.27 
   33000    311.18453   -29131.584    148.41311   -29279.997   -28493.183 
   33200      284.795    -29134.74    135.82717   -29270.567    12309.923 
   33400    343.65951   -29098.883     163.9014   -29262.784   -24375.304 
   33600    327.98554   -29125.931    156.42601   -29282.357    18706.339 
   33800    306.21549   -29127.452    146.04323   -29273.496    29515.715 
   34000    307.98313   -29145.701    146.88627   -29292.587    31721.269 
   34200    290.95638   -29141.119    138.76571   -29279.885   -39362.941 
   34400    321.66171   -29124.464    153.40999   -29277.874    -27648.95 
   34600    301.26757   -29136.766    143.68342    -29280.45   -1001.1479 
   34800    325.04605   -29121.783    155.02409   -29276.808   -21174.366 
   35000    301.06283   -29114.425    143.58578   -29258.011    53471.661 
   35200    301.52308   -29142.264    143.80528   -29286.069    20342.499 
   35400    296.95051   -29137.909    141.62449   -29279.533   -1329.0788 
   35600    302.52205   -29120.564    144.28172   -29264.846   -47888.919 
   35800    286.99591   -29147.569    136.87685   -29284.446   -5885.2856 
   36000    303.12041   -29131.307     144.5671   -29275.875    40369.058 
   36200    287.16496   -29142.561    136.95747   -29279.519    -2978.111 
   36400    307.84262   -29141.177    146.81926   -29287.997   -7174.5867 
   36600    316.48992   -29122.255    150.94342   -29273.198   -16462.135 
   36800    319.90617   -29126.746    152.57272   -29279.319    5895.6637 
   37000    306.20724   -29124.644     146.0393   -29270.684    28464.784 
   37200     277.3067   -29138.663    132.25577   -29270.918   -42903.704 
   37400    298.23905   -29145.066    142.23903   -29287.305    12852.896 
   37600    306.53989   -29116.857    146.19795   -29263.055    224.49836 
   37800    293.78775   -29138.934    140.11608    -29279.05   -14.428201 
   38000    285.36423   -29138.843    136.09865   -29274.941   -17962.593 
   38200    345.51815   -29097.853    164.78784   -29262.641   -19351.772 
   38400    317.50044   -29137.074    151.42536   -29288.499    14227.186 
   38600    316.49143   -29153.973    150.94413   -29304.917   -31522.402 
   38800    265.56317   -29150.822    126.65494   -29277.477   -7322.2477 
   39000    321.74542   -29121.163    153.44992   -29274.613     44019.35 
   39200     275.5585   -29150.974    131.42201   -29282.396    1918.2562 
   39400    295.69642   -29141.024    141.02638   -29282.051    16477.161 
   39600    330.37216   -29121.699    157.56426   -29279.263   -34798.571 
   39800    279.43203   -29146.329    133.26941   -29279.598   -3455.7463 
   40000     283.8358   -29146.934     135.3697   -29282.304   -28239.154 
   40200    304.08807   -29133.368    145.02861   -29278.396   -9109.0444 
   40400    282.22035   -29136.552    134.59924   -29271.151     41227.07 
   40600    277.95157    -29164.09    132.56333   -29296.653    5833.7795 
   40800    281.08096   -29138.085    134.05583   -29272.141   -10369.109 
   41000    303.30416   -29132.883    144.65473   -29277.538    20730.933 
   41200    284.31034   -29151.685    135.59602   -29287.281   -7951.0385 
   41400    289.14339   -29146.267    137.90105   -29284.168   -17414.981 
   41600    323.62423   -29119.247    154.34598   -29273.593   -14379.957 
   41800    318.87109   -29128.845    152.07906   -29280.924    10468.277 
   42000    281.30818   -29147.041     134.1642   -29281.206   -4493.6336 
   42200    280.56435   -29122.663    133.80944   -29256.472   -35801.154 
   42400    298.49316   -29122.483    142.36023   -29264.843    13985.843 
   42600    264.45563   -29151.767    126.12672   -29277.894   -36822.811 
   42800    304.45939   -29123.649     145.2057   -29268.854    -2985.512 
   43000    314.67565   -29125.265    150.07814   -29275.343   -1870.6712 
   43200    303.42792   -29150.879    144.71376   -29295.593   -11825.976 
   43400    272.42667    -29137.63    129.92835   -29267.558   -5691.5971 
   43600     312.5059    -29129.48    149.04332   -29278.523    3989.0464 
   43800    289.11214   -29152.774    137.88614    -29290.66     18891.55 
   44000    331.30904   -29122.301    158.01109   -29280.312    1033.1785 
   44200    315.42769   -29122.884     150.4368   -29273.321   -24390.386 
   44400    285.99771   -29143.877    136.40078   -29280.277    5183.5241 
   44600    325.37941    -29119.45    155.18307   -29274.633   -49401.033 
   44800    301.74288   -29120.032    143.91011   -29263.942    -10447.18 
   45000    265.26228   -29138.786    126.51143   -29265.297    34864.613 
   45200    304.51357   -29129.581    145.23154   -29274.813   -3106.8159 
   45400    322.32223   -29106.628    153.72502   -29260.353   -30944.997 
   45600    284.90048   -29142.409    135.87748   -29278.286    21644.986 
   45800    309.40241    -29139.49    147.56317   -29287.053   -21368.123 
   46000    307.03605   -29127.588    146.43458   -29274.023    4484.2085 
   46200    305.33777   -29120.099    145.62462   -29265.724   -1849.3624 
   46400    283.06461     -29152.2    135.00189   -29287.202    -1949.688 
   46600    302.43996   -29129.929    144.24257   -29274.172   -43101.135 
   46800    305.46129   -29125.298    145.68353   -29270.981    40911.762 
   47000    292.18396   -29142.479    139.35118    -29281.83    25651.651 
   47200    271.27587   -29154.648    129.37949   -29284.028    7819.8768 
   47400    315.68983    -29126.04    150.56183   -29276.602   -39114.486 
   47600    291.66464   -29136.326     139.1035   -29275.429   -5491.9351 
   47800    296.55094   -29156.223    141.43392   -29297.657    17445.191 
   48000    314.89455   -29121.466    150.18253   -29271.648    4116.0172 
   48200      293.799   -29149.636    140.12144   -29289.757    22840.195 
   48400    323.08079   -29145.657    154.08679   -29299.744     -14624.8 
   48600    347.90248   -29106.329    165.92499   -29272.254   -9204.5948 
   48800    309.73548   -29135.357    147.72202   -29283.079    13880.945 
   49000    288.86361    -29143.73    137.76761   -29281.498   -41685.834 
   49200    314.67568   -29133.857    150.07815   -29283.935    1931.7146 
   49400    331.93383   -29118.401    158.30907    -29276.71    41630.283 
   49600    294.83567   -29150.417    140.61586   -29291.033    6137.2072 
   49800    308.56351   -29128.092    147.16308   -29275.255    6069.6969 
   50000    303.82205   -29126.916    144.90173   -29271.818    15645.606 
   50200    276.89824   -29160.921    132.06097   -29292.982    7976.5575 
   50400    281.07382   -29128.883    134.05243   -29262.936    13534.946 
   50600    336.71462   -29121.995    160.58917   -29282.585   -15105.056 
   50800    277.98273   -29154.297     132.5782   -29286.875    46551.046 
   51000    301.43031   -29132.939    143.76104     -29276.7   -45235.176 
   51200    288.70216   -29126.255    137.69061   -29263.945     9899.665 
   51400    291.79757   -29136.727     139.1669   -29275.894     11784.04 
   51600    298.19162    -29131.88    142.21641   -29274.096    36141.605 
   51800    315.07208   -29113.814    150.26721   -29264.081   -19478.067 
   52000    291.40736    -29147.03     138.9808   -29286.011    24029.497 
   52200    323.67661   -29128.663    154.37096   -29283.034    11887.268 
   52400    312.26239   -29117.263    148.92718    -29266.19    7849.8858 
   52600    277.25201   -29151.934    132.22969   -29284.164    24097.728 
   52800    290.91149   -29130.563     138.7443   -29269.307   -18963.402 
   53000    315.29373    -29130.84    150.37291   -29281.213   -169.90714 
   53200    278.87887   -29142.773    133.00559   -29275.778   -8195.8206 
   53400    324.44776   -29127.583    154.73875   -29282.322   -14027.766 
   53600    320.47805   -29106.981    152.84547   -29259.827    8425.6074 
   53800     316.8228   -29130.451    151.10217   -29281.554     39210.33 
   54000    279.32186   -29140.183    133.21687     -29273.4    35566.013 
   54200    249.02326   -29157.043    118.76657    -29275.81   -15684.015 
   54400    316.64692   -29127.497    151.01829   -29278.516   -25881.031 
   54600    293.59914   -29141.794    140.02612    -29281.82   -8988.3567 
   54800    289.94857   -29148.228    138.28506   -29286.513    577.66495 
   55000    309.38723   -29131.477    147.55593   -29279.033    8247.7744 
   55200    331.42036   -29136.354    158.06418   -29294.418    -5218.023 
   55400    278.07124   -29153.497    132.62041   -29286.117   -4116.6172 
   55600    323.72348   -29125.264    154.39331   -29279.657    273.82209 
   55800    300.01029   -29133.596    143.08379   -29276.679   -28723.969 
   56000    263.29733   -29167.524    125.57429   -29293.099   -1128.0286 
   56200    300.35676   -29135.837    143.24903   -29279.086    8378.7851 
   56400    299.74714   -29127.899    142.95829   -29270.857   -25461.261 
   56600     295.8129     -29135.3    141.08193   -29276.381     5634.254 
   56800    291.24445   -29156.593     138.9031   -29295.496    6161.3676 
   57000    302.02569   -29122.436      144.045   -29266.481   -28595.795 
   57200    297.67365   -29141.392    141.96938   -29283.361   -7952.7376 
   57400    300.31656   -29158.049    143.22986   -29301.279   -28804.541 
   57600    324.98621   -29119.251    154.99555   -29274.246    1289.2691 
   57800    277.84419   -29143.278    132.51212    -29275.79   -51326.896 
   58000    299.67789   -29138.997    142.92526   -29281.922   -13639.772 
   58200    311.84386   -29123.868    148.72757   -29272.595    28077.375 
   58400    278.78195   -29140.462    132.95937   -29273.421     12876.13 
   58600     308.5425   -29146.134    147.15306   -29293.287   -3242.5193 
   58800    314.99283   -29122.139    150.22941   -29272.368   -45684.986 
   59000    271.43395   -29150.945    129.45489     -29280.4   -11261.681 
   59200    290.09797   -29135.906    138.35631   -29274.262   -15723.305 
   59400    325.19681   -29125.222    155.09599   -29280.317      8467.91 
   59600    301.93229   -29131.807    144.00045   -29275.807   -17819.782 
   59800    292.33323   -29136.144    139.42237   -29275.567    18203.826 
   60000    301.29727   -29114.119    143.69759   -29257.817   -20904.859 
   60200    302.18277   -29117.168    144.11991   -29261.288   -18784.077 
   60400    278.13084   -29141.263    132.64883   -29273.912      45297.6 
   60600    294.09566   -29124.011    140.26293   -29264.274    24496.822 
   60800    323.86588   -29084.717    154.46123   -29239.179   -1539.7074 
   61000    294.11891   -29129.187    140.27401   -29269.461    37008.781 
   61200    297.74131   -29150.711    142.00165   -29292.712    -11902.49 
   61400    306.44687   -29119.564    146.15358   -29265.718   -71223.793 
   61600    299.32886   -29129.681     142.7588    -29272.44    26193.024 
   61800     292.4319   -29147.489    139.46943   -29286.958    5365.8305 
   62000    301.76516   -29142.534    143.92074   -29286.454   -75443.674 
   62200    301.18395   -29135.108    143.64354   -29278.751   -24991.212 
   62400     312.2391   -29139.535    148.91607   -29288.451   -15984.707 
   62600    328.78159   -29141.966    156.80568   -29298.771    25398.698 
   62800    313.91432   -29120.909    149.71504   -29270.624    17626.503 
   63000    277.08006   -29151.205    132.14768   -29283.353   -5893.8877 
   63200    293.45552   -29146.871    139.95763   -29286.828   -26824.148 
   63400    317.33563   -29111.316    151.34676   -29262.663     14135.22 
   63600    320.43025   -29136.808    152.82267   -29289.631    34426.565 
   63800    294.59401   -29143.725    140.50061   -29284.226    -893.6231 
   64000      348.609   -29118.672    166.26195   -29284.934   -24042.161 
   64200    298.01992   -29142.515    142.13452    -29284.65   -1470.6265 
   64400    265.73389   -29141.676    126.73636   -29268.412   -16950.627 
   64600    318.27597    -29123.11    151.79523   -29274.905    8655.9328 
   64800    299.23977   -29145.368    142.71631   -29288.084   -10689.201 
   65000    297.52752   -29161.504    141.89968   -29303.403   -10132.051 
   65200    288.59997    -29130.14    137.64187   -29267.781   -17978.419 
   65400     321.5723   -29126.861    153.36735   -29280.229   -3260.9605 
   65600    314.66899   -29154.899    150.07496   -29304.974   -5184.1492 
   65800    306.90871   -29132.061    146.37385   -29278.435   -1579.9302 
   66000    302.36055   -29130.258     144.2047   -29274.462    5430.3748 
   66200    312.59312   -29141.801    149.08491   -29290.886    10801.216 
   66400    270.71052   -29175.009    129.10986   -29304.118     -12262.1 
   66600    273.90863   -29140.829    130.63514   -29271.465    -375.2376 
   66800     305.0067   -29122.966    145.46672   -29268.433   -64388.977 
   67000    339.27446   -29129.389    161.81004   -29291.199   -8332.8732 
   67200    281.51801   -29151.901    134.26427   -29286.165   -5927.9227 
   67400    307.39944   -29133.212    146.60789    -29279.82     15827.81 
   67600    303.58353   -29133.152    144.78798    -29277.94   -6963.7801 
   67800     268.6277   -29161.821    128.11651   -29289.937   -43670.893 
   68000    324.88946   -29128.201     154.9494    -29283.15    3457.5812 
   68200    303.03463   -29127.913    144.52619   -29272.439    33407.305 
   68400    284.85059   -29153.239    135.85368   -29289.092   -12255.243 
   68600     324.5123   -29120.968    154.76952   -29275.737   -27288.728 
   68800    311.54165   -29124.278    148.58344   -29272.861   -6907.4016 
   69000    291.42527   -29149.447    138.98934   -29288.436   -37739.789 
   69200    333.60743   -29112.581    159.10726   -29271.688     30173.42 
   69400     298.6223   -29131.516    142.42182   -29273.938    14595.588 
   69600    279.60956   -29143.944    133.35408   -29277.298    4158.4342 
   69800    321.25389   -29105.577    153.21549   -29258.792   -7143.4105 
   70000    293.48965   -29126.009     139.9739   -29265.983    22784.998 
   70200    307.35541   -29138.328     146.5869   -29284.915    11338.625 
   70400    303.93886   -29123.782    144.95744    -29268.74   -1734.0587 
   70600    306.27733   -29121.252    146.07273   -29267.324   -21346.638 
   70800    279.49217   -29147.099    133.29809   -29280.397    21322.641 
   71000    292.38674   -29130.456    139.44789   -29269.904    -21221.63 
   71200    322.00215   -29102.069    153.57236   -29255.641   -12729.681 
   71400    314.50147   -29132.882    149.99506   -29282.877    46375.367 
   71600    280.82305    -29148.96    133.93283   -29282.893    32791.565 
   71800    272.91194   -29165.563    130.15978   -29295.723    8938.3397 
   72000    325.33355   -29132.621     155.1612   -29287.782     15981.79 
   72200    285.32577   -29148.535    136.08031   -29284.615    35589.694 
   72400    284.24219   -29151.417    135.56352    -29286.98   -7034.6426 
   72600    309.12232    -29127.09    147.42959    -29274.52    15748.001 
   72800    311.87524   -29152.231    148.74254   -29300.974    20320.652 
   73000    308.69244   -29123.683    147.22456   -29270.908   -44076.149 
   73200    295.27978   -29134.689    140.82767   -29275.517   -25570.881 
   73400    301.86144   -29147.606    143.96666   -29291.573    15232.536 
   73600    298.83714   -29111.689    142.52428   -29254.213    28029.183 
   73800    306.46236   -29134.693    146.16097   -29280.854   -33620.945 
   74000     288.0508   -29143.026    137.37996   -29280.406   -15069.202 
   74200    340.17302   -29109.437    162.23858   -29271.675    16533.411 
   74400    300.33937   -29137.743    143.24074   -29280.984     70146.52 
   74600    313.88963   -29142.077    149.70326    -29291.78   -1922.9465 
   74800    342.92042   -29109.071     163.5489    -29272.62    2824.3001 
   75000    289.67329   -29134.996    138.15377    -29273.15    5287.5685 
   75200    316.08275    -29138.42    150.74922   -29289.169    10327.744 
   75400    297.71052   -29135.471    141.98696   -29277.458   -6448.0258 
   75600    288.05864    -29143.91    137.38369   -29281.294   -44274.408 
   75800    323.67654    -29130.19    154.37093    -29284.56   -10922.029 
   76000    320.14593   -29117.087    152.68707   -29269.774    8509.0955 
   76200    312.14105   -29134.021    148.86931    -29282.89    17313.885 
   76400    304.75307   -29128.806    145.34576   -29274.152    13373.543 
   76600    294.36372   -29124.585    140.39078   -29264.976   -7152.7587 
   76800    298.93683   -29148.599    142.57183   -29291.171     14098.94 
   77000     293.8827   -29121.797    140.16136   -29261.958    16169.081 
   77200    294.74751   -29122.106    140.57381    -29262.68   -22611.999 
   77400    303.77121   -29141.857    144.87749   -29286.735    -19960.39 
   77600    301.78587   -29115.086    143.93062   -29259.016    -4762.589 
   77800    327.95427   -29128.398     156.4111   -29284.809   -5683.6541 
   78000    265.17639   -29139.262    126.47047   -29265.732   -30599.736 
   78200    348.89778   -29107.034    166.39968   -29273.433    4422.1445 
   78400    282.81045   -29120.254    134.88068   -29255.135   -19297.017 
   78600    303.05889   -29136.492    144.53776    -29281.03   -22374.636 
   78800    334.57786    -29124.95    159.57009    -29284.52    -56422.55 
   79000     306.6038    -29116.67    146.22843   -29262.899   -42048.601 
   79200    317.71004   -29142.041    151.52532   -29293.567    29598.209 
   79400     321.0596   -29131.239    153.12283   -29284.362    24148.601 
   79600    316.05799   -29131.625    150.73741   -29282.363    23824.926 
   79800    263.43661   -29143.657    125.64072   -29269.298    30154.881 
   80000    297.78667   -29155.029    142.02328   -29297.052   -15110.042 
   80200    302.73138   -29125.384    144.38156   -29269.766   -16739.605 
   80400    295.45174    -29130.22    140.90968   -29271.129    34510.652 
   80600    285.90791   -29155.647    136.35795   -29292.005    24810.971 
   80800    317.91867   -29136.858    151.62483   -29288.483   -46656.936 
   81000    305.13711   -29132.198    145.52892   -29277.726   -18589.606 
   81200    291.20727   -29123.818    138.88537   -29262.703    81646.127 
   81400       333.18   -29121.674    158.90341   -29280.578    26682.437 
   81600    295.88867   -29145.767    141.11807   -29286.885    28035.631 
   81800    319.34569   -29123.034    152.30541    -29275.34   -39190.541 
   82000    303.94534   -29129.347    144.96053   -29274.308    21856.406 
   82200    267.46487   -29142.757    127.56192   -29270.319   -27983.871 
   82400    317.35756   -29141.136    151.35722   -29292.493   -25102.378 
   82600    317.46641   -29125.384    151.40913   -29276.793   -34692.802 
   82800    307.74448    -29144.61    146.77246   -29291.383   -47784.846 
   83000    304.62184   -29152.179    145.28317   -29297.463    617.81892 
   83200    298.03654   -29130.789    142.14245   -29272.931   -14142.465 
   83400    293.23901   -29136.398    139.85437   -29276.253    32211.801 
   83600    299.90713   -29158.182    143.03459   -29301.217   -29852.136 
   83800    295.94076   -29135.692    141.14291   -29276.835   -28703.421 
   84000    275.39836   -29132.615    131.34563    -29263.96    26841.974 
   84200    273.22321   -29157.341    130.30824    -29287.65   -522.91454 
   84400    321.66569   -29118.085    153.41189   -29271.497    36021.326 
   84600     295.1807   -29140.834    140.78041   -29281.615   -33454.928 
   84800    284.93318   -29146.886    135.89307   -29282.779   -13920.173 
   85000    308.96044   -29115.112    147.35238   -29262.464    43076.865 
   85200     302.8441   -29137.517    144.43532   -29281.952    7450.2409 
   85400    289.31603   -29134.616    137.98338   -29272.599    34626.212 
   85600    323.91169   -29104.271    154.48307   -29258.754   -11074.791 
   85800    300.10561    -29130.68    143.12925    -29273.81    14483.443 
   86000    315.13596   -29139.087    150.29767   -29289.385    7409.3017 
   86200    350.23119    -29103.03    167.03563   -29270.065    14240.209 
   86400     305.4864   -29130.603    145.69551   -29276.299   -51339.652 
   86600    310.95573    -29134.78      148.304   -29283.084    -3568.731 
   86800    335.56053   -29100.612    160.03875    -29260.65   -4517.4266 
   87000    307.34687   -29129.697    146.58282    -29276.28    13555.567 
   87200    322.42862   -29139.846    153.77575   -29293.622   -3244.0105 
   87400    310.24757   -29138.613    147.96625   -29286.579   -32472.804 
   87600    299.79048   -29114.578    142.97896   -29257.557   -21808.515 
   87800    307.17877   -29144.153    146.50265   -29290.656   -28596.429 
   88000    273.50855   -29138.145    130.44433   -29268.589    47329.686 
   88200    286.70156   -29123.493    136.73646    -29260.23    20804.762 
   88400    298.05768   -29130.188    142.15253   -29272.341   -10483.796 
   88600    267.10596   -29147.564    127.39074   -29274.955   -9918.9994 
   88800    341.16676    -29113.44    162.71253   -29276.152   -12955.557 
   89000    270.91307   -29130.946    129.20646   -29260.152   -22907.674 
   89200    321.98173    -29138.94    153.56262   -29292.503    28099.193 
   89400    300.53699   -29140.174    143.33499   -29283.509    35324.104 
   89600    290.03281   -29133.246    138.32524   -29271.571   -43251.623 
   89800     350.3923   -29114.809    167.11246   -29281.921    32924.934 
   90000    290.25781    -29147.38    138.43254   -29285.812   -10769.014 
   90200    279.71646   -29132.194    133.40506   -29265.599   -32003.542 
   90400    348.22743   -29112.673    166.07997   -29278.753    19969.004 
   90600    267.31915   -29149.599    127.49242   -29277.091   -14368.286 
   90800    313.02021   -29123.724    149.28861   -29273.012   -3508.6227 
   91000     296.2179    -29125.52    141.27509   -29266.795    32956.219 
   91200    275.99619   -29149.676    131.63075   -29281.307    60219.011 
   91400    332.51418   -29126.114    158.58586     -29284.7    18462.571 
   91600    287.25555   -29139.522    137.00068   -29276.522   -65995.883 
   91800    291.49389    -29151.34    139.02207   -29290.362    7874.9378 
   92000     315.0396   -29132.136    150.25171   -29282.388    33268.229 
   92200    314.73036   -29138.077    150.10423   -29288.181   -9316.1933 
   92400    294.99572   -29158.425    140.69219   -29299.117   -54150.515 
   92600    326.25572   -29150.818    155.60101   -29306.419    7668.9381 
   92800    293.43505   -29133.324    139.94786   -29273.272    6258.6914 
   93000    291.50103   -29142.187    139.02547   -29281.213   -16504.653 
   93200    275.96421   -29155.151     131.6155   -29286.766   -524.02997 
   93400    274.62437   -29124.786    130.97649   -29255.762    28192.963 
   93600    325.55706   -29136.531     155.2678   -29291.799   -18860.055 
   93800    280.41556   -29160.824    133.73848   -29294.563    13165.361 
   94000    310.23978   -29140.296    147.96254   -29288.258    10531.944 
   94200     327.7358   -29124.377    156.30691   -29280.684    4149.0517 
   94400    273.61978   -29143.696    130.49737   -29274.194    1080.9221 
   94600    287.45888    -29149.11    137.09765   -29286.208   -20384.521 
   94800    315.54248   -29121.888    150.49155   -29272.379    24888.363 
   95000    294.51288   -29137.948    140.46191   -29278.409     9711.381 
   95200    301.11479     -29129.9    143.61056   -29273.511    -4562.956 
   95400    318.25173   -29112.645    151.78367   -29264.429   -10035.491 
   95600    310.31889   -29138.735    148.00027   -29286.736    8067.2308 
   95800    337.18658   -29123.761    160.81427   -29284.576    16067.065 
   96000    325.35718   -29107.295    155.17247   -29262.468   -7775.7526 
   96200     313.2696     -29132.5    149.40755   -29281.908   -25545.446 
   96400    288.20644     -29146.1    137.45418   -29283.554   -23947.887 
   96600    299.30124   -29129.101    142.74562   -29271.847    21697.756 
   96800    310.43693    -29126.97    148.05656   -29275.027     6370.318 
   97000     298.5912   -29152.157    142.40698   -29294.564   -2441.4398 
   97200    311.99319   -29131.229    148.79879   -29280.027   -26258.491 
   97400    313.60893   -29125.821    149.56939    -29275.39    21404.251 
   97600    314.66806   -29127.757    150.07451   -29277.831   -19528.176 
   97800    284.81418   -29139.897    135.83632   -29275.733    48530.879 
   98000    285.20984   -29146.475    136.02502     -29282.5    16627.943 
   98200    338.76975   -29117.101    161.56932   -29278.671    9802.5229 
   98400     300.7884   -29144.538    143.45489   -29287.993    41211.915 
   98600    300.89847    -29140.95    143.50739   -29284.458   -17697.659 
   98800    318.04472    -29126.19    151.68494   -29277.875   -9418.9503 
   99000     305.5409   -29150.952     145.7215   -29296.674   -18555.938 
   99200    298.82656   -29141.633    142.51923   -29284.153    16502.551 
   99400     284.2782   -29128.735    135.58069   -29264.316    20014.057 
   99600    267.75436   -29143.529    127.69998   -29271.229    41114.973 
   99800     296.2626   -29130.005    141.29641   -29271.302    2158.4933 
  100000     306.2982   -29119.595    146.08268   -29265.678    26194.972 
  100200    268.69948   -29148.785    128.15074   -29276.935    17076.258 
  100400    315.73452   -29136.769    150.58314   -29287.353    6708.2916 
  100600    291.01228     -29131.1    138.79237   -29269.893   -17748.517 
  100800    301.89941   -29134.384    143.98477   -29278.369   -6294.9717 
  101000    272.30283   -29150.472    129.86928   -29280.342     59844.08 
  101200    282.97373   -29135.119    134.95855   -29270.078   -23983.272 
  101400    320.39921   -29126.581    152.80787   -29279.389    9188.6857 
  101600     291.5795   -29153.077     139.0629    -29292.14    28894.698 
  101800    303.37505   -29135.443    144.68854   -29280.131    -25477.07 
  102000    295.83693   -29125.278    141.09339   -29266.371   -2468.4075 
  102200    270.46657    -29157.45    128.99351   -29286.443    43323.253 
  102400    313.07013    -29130.37    149.31242   -29279.682    4000.6185 
  102600     292.2552   -29131.929    139.38516   -29271.314   -13884.062 
  102800    289.74654   -29139.959    138.18871   -29278.148   -21597.106 
  103000     295.5112   -29137.349    140.93804   -29278.287    6661.1017 
  103200     327.1286   -29114.886    156.01732   -29270.903    18250.009 
  103400    282.09046   -29149.313    134.53729   -29283.851    42627.426 
  103600     286.3321   -29137.454    136.56026   -29274.014    41296.039 
  103800    333.40283    -29125.05    159.00968   -29284.059   -71612.061 
  104000    288.34977   -29132.892    137.52254   -29270.415   -17998.699 
  104200    275.47873     -29138.1    131.38396   -29269.484   -3821.9029 
  104400    270.94509   -29154.841    129.22174   -29284.063    13805.766 
  104600    325.87599   -29137.414    155.41991   -29292.834   -28458.684 
  104800    306.85048   -29127.793    146.34608   -29274.139    16718.555 
  105000     296.9763   -29156.804    141.63679   -29298.441   -18424.382 
  105200    293.22176   -29153.483    139.84614    -29293.33    4757.8687 
  105400    303.18702   -29131.503    144.59887   -29276.102   -12203.256 
  105600    314.70404   -29116.266    150.09167   -29266.357     8820.665 
  105800    289.76989   -29131.641    138.19984   -29269.841   -2261.7646 
  106000    303.40278   -29145.651    144.70177   -29290.353   -41868.268 
  106200    333.05967   -29113.356    158.84602   -29272.202   -1041.8313 
  106400    289.95281   -29130.503    138.28708    -29268.79    8288.8504 
  106600    329.57512   -29142.694    157.18413   -29299.878    2823.8448 
  106800    301.89708   -29109.614    143.98366   -29253.597   -25730.874 
  107000    322.70489   -29134.642    153.90752   -29288.549    36007.279 
  107200    294.31741   -29139.676    140.36869   -29280.045   -5026.7335 
  107400    322.11101   -29111.037    153.62428   -29264.662   -3227.2157 
  107600    314.52044   -29114.121    150.00411   -29264.126    40406.552 
  107800    308.64742   -29138.908    147.20309   -29286.111    19541.849 
  108000    291.21289   -29155.396    138.88805   -29294.284   -17170.326 
  108200    314.01457   -29150.868    149.76285   -29300.631   -7971.9456 
  108400    309.48751   -29129.058    147.60376   -29276.661   -19726.499 
  108600    282.29469   -29161.805     134.6347    -29296.44     -1058.73 
  108800    285.18302   -29152.655    136.01223   -29288.667    8623.5959 
  109000    291.67449   -29134.214     139.1082   -29273.322   -35414.249 
  109200    311.00413   -29111.253    148.32708    -29259.58    24323.796 
  109400    281.08533   -29127.423    134.05792   -29261.481    4991.1576 
  109600    314.06048   -29145.785    149.78474   -29295.569    45410.486 
  109800    313.72435   -29120.929    149.62443   -29270.554   -34829.445 
  110000    321.71723    -29127.84    153.43647   -29281.276    -10144.63 
  110200    280.15211   -29140.225    133.61284   -29273.837    30893.842 
  110400    301.10127   -29138.806    143.60411    -29282.41    20694.446 
  110600    321.44752   -29121.482    153.30784    -29274.79   -9246.3394 
  110800    303.73379   -29149.321    144.85964    -29294.18   -29838.151 
  111000    302.75187   -29131.272    144.39133   -29275.664    38208.003 
  111200    313.49751   -29121.045    149.51625   -29270.561   -10269.878 
  111400    300.20319   -29143.975    143.17579    -29287.15    -12480.25 
  111600    322.70049    -29111.92    153.90542   -29265.825     5777.331 
  111800    318.87827   -29120.693    152.08249   -29272.776     -12955.8 
  112000     282.3594   -29135.204    134.66556   -29269.869    39042.203 
  112200    311.51104   -29112.744    148.56884   -29261.313    22244.647 
  112400    291.04942   -29127.741    138.81008   -29266.551   -29274.359 
  112600    265.49148   -29138.662    126.62075   -29265.282   -4419.8809 
  112800    291.24216   -29129.892    138.90201   -29268.794   -30391.685 
  113000    283.04742   -29146.585     134.9937   -29281.578    944.29419 
  113200    289.73999   -29127.894    138.18558    -29266.08   -31554.489 
  113400    279.80774   -29131.524     133.4486   -29264.972   -11353.684 
  113600    278.46404   -29147.934    132.80775   -29280.741   -17301.688 
  113800    289.33505   -29124.534    137.99245   -29262.527   -4724.0331 
  114000    284.82334   -29149.575    135.84068   -29285.416   -42230.593 
  114200     278.2714    -29146.86    132.71587   -29279.576   -28034.854 
  114400    300.88461   -29130.975    143.50078   -29274.475   -8127.4128 
  114600    299.21485   -29134.563    142.70442   -29277.267   -14138.527 
  114800    281.62636    -29142.48    134.31595   -29276.796   -19510.169 
  115000    297.84884   -29149.354    142.05293   -29291.407   -28494.441 
  115200    335.05773   -29118.116    159.79895   -29277.915    3840.3515 
  115400    288.59964   -29138.701    137.64171   -29276.343    9657.4472 
  115600    282.99999   -29145.311    134.97107   -29280.283   -24057.227 
  115800    307.86573   -29129.524    146.83028   -29276.355   -2536.2779 
  116000    321.17358   -29138.676    153.17719   -29291.853   -25732.985 
  116200    274.20069   -29147.762    130.77443   -29278.537   -22461.599 
  116400    282.79865   -29125.545    134.87505    -29260.42   -21753.521 
  116600    311.37027   -29138.507     148.5017   -29287.009   -5766.4564 
  116800    311.97912   -29137.023    148.79208   -29285.815    -30221.61 
  117000    286.36918   -29135.947    136.57794   -29272.525   -2280.2385 
  117200    293.21525   -29142.827    139.84304    -29282.67   -21703.053 
  117400    308.14584   -29130.332    146.96388   -29277.296    6917.4492 
  117600    306.05999   -29116.112    145.96907   -29262.081   -21151.824 
  117800     284.5351   -29149.172    135.70321   -29284.875   -46389.695 
  118000    302.15616   -29131.553    144.10722    -29275.66    24552.272 
  118200    309.85151    -29124.72    147.77736   -29272.497   -7272.9127 
  118400    272.65873   -29153.121    130.03902    -29283.16    1161.6672 
  118600    313.73361     -29127.2    149.62885   -29276.829   -10824.917 
  118800    264.01068   -29137.932    125.91451   -29263.847   -7536.6245 
  119000    271.75771   -29154.656     129.6093   -29284.265    10255.386 
  119200    280.12497   -29127.812    133.59989   -29261.412   -41994.629 
  119400    310.48862   -29125.354    148.08121   -29273.436    34913.853 
  119600    281.61473   -29140.083     134.3104   -29274.393    21257.134 
  119800    329.74608   -29121.998    157.26567   -29279.264   -772.67615 
  120000    283.13678   -29123.842    135.03631   -29258.878   -1084.4726 
  120200    302.62493   -29145.102    144.33079   -29289.432   -7432.2163 
  120400    316.99973   -29125.105    151.18656   -29276.291    49554.017 
  120600    294.25489   -29153.415    140.33887   -29293.754    23282.601 
  120800    296.14441   -29141.527    141.24004   -29282.767   -14918.616 
  121000    314.57614   -29133.854    150.03068   -29283.884    37103.167 
  121200    295.81802   -29136.758    141.08437   -29277.842    7104.4453 
  121400    312.61876   -29113.328    149.09714   -29262.425   -15923.866 
  121600    283.65016   -29143.778    135.28116    -29279.06    40728.614 
  121800    264.60045   -29138.952    126.19579   -29265.148    39911.096 
  122000    301.91879   -29119.464    143.99401   -29263.458    15763.032 
  122200    314.58254   -29133.749    150.03373   -29283.782   -7214.6866 
  122400    299.54254   -29145.186     142.8607   -29288.046    5823.8201 
  122600    323.12033   -29109.538    154.10565   -29263.644   -24823.204 
  122800     302.5559   -29139.318    144.29787   -29283.616    50452.526 
  123000    286.71827   -29139.715    136.74443    -29276.46   -32218.032 
  123200    347.38637   -29117.042    165.67885   -29282.721   -7943.6259 
  123400    317.78028   -29123.181    151.55883    -29274.74   -6444.5461 
  123600    310.80362   -29143.028    148.23145   -29291.259    47402.736 
  123800    296.70396   -29119.186     141.5069   -29260.692   -26222.142 
  124000    337.50363   -29092.784    160.96547   -29253.749   -3870.9037 
  124200    306.49367   -29128.883    146.17591   -29275.059    21831.542 
  124400    277.52337   -29141.058    132.35911   -29273.417   -33242.962 
  124600    328.44373   -29112.263    156.64454   -29268.908   -8059.4477 
  124800    299.63977   -29131.672    142.90708   -29274.579   -5613.5846 
  125000    305.13672   -29142.664    145.52874   -29288.193   -12490.254 
  125200    298.47448   -29134.863    142.35132   -29277.214    38730.867 
  125400    297.12177   -29135.709    141.70617   -29277.415   -3830.8915 
  125600     285.8433   -29156.294    136.32713   -29292.621    19184.784 
  125800    305.00088    -29129.02    145.46395   -29274.484    39281.336 
  126000    322.96065   -29136.421     154.0295   -29290.451    15787.362 
  126200    285.36719   -29140.003    136.10006   -29276.103   -3635.6169 
  126400    284.89385   -29117.464    135.87431   -29253.338    1052.4503 
  126600    302.05255   -29141.293     144.0578   -29285.351   -571.68369 
  126800    291.40997   -29141.721    138.98204   -29280.703   -7292.5431 
  127000     296.7997   -29127.391    141.55257   -29268.943    33638.696 
  127200    308.20369   -29136.578    146.99147   -29283.569    2563.3678 
  127400    271.83509   -29162.741     129.6462   -29292.388   -34193.895 
  127600    276.42996   -29131.241    131.83763   -29263.078   -8125.8311 
  127800    284.97873   -29129.819     135.9148   -29265.734    -3856.325 
  128000    275.98175   -29142.709    131.62387   -29274.333   -17731.174 
  128200    262.67929   -29148.458    125.27953   -29273.737   -25111.763 
  128400    301.74315   -29118.618    143.91024   -29262.528    -3257.596 
  128600     297.6642   -29137.076    141.96487   -29279.041   -8420.4306 
  128800    294.33872   -29138.065    140.37885   -29278.444   -833.87513 
  129000     322.4161   -29124.152    153.76978   -29277.921   -4076.2743 
  129200    319.74436   -29105.954    152.49555   -29258.449    8587.0004 
  129400    298.83355   -29138.737    142.52257   -29281.259   -69719.867 
  129600     304.7069   -29132.446    145.32374    -29277.77   -12729.291 
  129800    341.24902   -29104.609    162.75176   -29267.361    12820.955 
  130000    280.29937   -29140.984    133.68307   -29274.667    31591.908 
  130200    303.25022   -29127.558    144.62901   -29272.187    6301.3558 
  130400    313.55703   -29103.933    149.54463   -29253.478   -14006.683 
  130600    310.26826   -29127.501    147.97612   -29275.477    6406.2767 
  130800    289.76915   -29146.585    138.19948   -29284.784   -10393.474 
  131000    301.76563    -29137.43    143.92096   -29281.351     10554.01 
  131200    330.22521   -29121.072    157.49418   -29278.566    4610.3891 
  131400    274.89191   -29144.958    131.10409   -29276.062   -51752.067 
  131600    282.90462   -29132.887    134.92559   -29267.812     11260.09 
  131800    333.42522   -29103.144    159.02036   -29262.165    14431.499 
  132000    299.71385   -29144.659    142.94241   -29287.601    3742.5731 
  132200    292.33867   -29138.256    139.42497   -29277.681    825.37151 
  132400    305.15463   -29115.708    145.53728   -29261.246    -21126.89 
  132600     295.5828   -29152.485    140.97219   -29293.457   -30139.274 
  132800     308.1243   -29132.678     146.9536   -29279.632    34834.317 
  133000     298.6363   -29121.947     142.4285   -29264.376   -25322.974 
  133200    281.72692   -29159.175    134.36391   -29293.539   -10922.026 
  133400    273.16341   -29144.743    130.27972   -29275.022   -25105.712 
  133600     285.5108   -29126.651    136.16855    -29262.82    -16260.62 
  133800    296.42888    -29139.46    141.37571   -29280.835   -25946.522 
  134000    293.74109   -29153.135    140.09382   -29293.229   -26498.144 
  134200    312.07187   -29126.859    148.83631   -29275.695   -7303.7262 
  134400    320.70025   -29146.681    152.95145   -29299.632   -9887.3816 
  134600     245.9644   -29182.025     117.3077   -29299.333     21565.57 
  134800    277.56345    -29161.55    132.37823   -29293.928     -7652.56 
  135000    265.33739   -29130.431    126.54726   -29256.978   -3434.7657 
  135200    310.77363   -29129.124    148.21715   -29277.341   -24601.422 
  135400    301.20034   -29155.911    143.65136   -29299.562     5193.229 
  135600    287.84491   -29128.391    137.28176   -29265.673   -16549.037 
  135800    291.08747   -29129.621    138.82823    -29268.45   -34052.707 
  136000    311.58533   -29114.308    148.60427   -29262.913   -16011.906 
  136200    329.21311   -29114.771    157.01148   -29271.782   -52446.501 
  136400    273.49681   -29139.188    130.43872   -29269.627   -29455.899 
  136600    318.11766   -29116.135    151.71973   -29267.855    28559.435 
  136800    299.27663   -29144.267    142.73389   -29287.001   -38662.545 
  137000    281.50118   -29140.261    134.25625   -29274.517   -157.57723 
  137200    312.51985   -29125.005    149.04997   -29274.055   -50949.291 
  137400    271.39348   -29158.688    129.43559   -29288.123   -6550.1425 
  137600    302.29803   -29165.858    144.17488   -29310.033    -8751.666 
  137800    305.44353   -29140.302    145.67506   -29285.977   -5821.1765 
  138000    298.48955   -29124.826     142.3585   -29267.185   -22430.942 
  138200    288.73286   -29152.604    137.70525   -29290.309    20981.461 
  138400     321.4197   -29137.184    153.29457   -29290.478    5112.3837 
  138600    310.64079   -29120.716    148.15379    -29268.87   -10403.579 
  138800    279.01767   -29141.793    133.07179   -29274.865   -9023.6368 
  139000    298.70161   -29138.881    142.45964    -29281.34    3425.0515 
  139200    291.84593   -29117.094    139.18996   -29256.284     43225.18 
  139400    295.56978   -29148.115    140.96598   -29289.081    36090.612 
  139600    306.16569   -29140.403    146.01948   -29286.423   -12143.271 
  139800    316.62525   -29130.951    151.00796   -29281.959    6390.6018 
  140000    286.93178   -29149.451    136.84626   -29286.298    55664.203 
  140200    296.62922   -29152.278    141.47126    -29293.75   -19709.422 
  140400     308.9936   -29124.384     147.3682   -29271.752    5099.5316 
  140600    297.68382   -29144.636    141.97423    -29286.61    8726.8406 
  140800    297.38722   -29143.852    141.83277   -29285.685   -12554.342 
  141000    306.93188   -29121.331     146.3849   -29267.716   -14433.587 
  141200    305.83023   -29132.196    145.85949   -29278.055    10607.026 
  141400    272.92555   -29148.708    130.16627   -29278.875    6136.1412 
  141600    333.36275   -29120.198    158.99057   -29279.189   -52626.561 
  141800    306.09715   -29125.649    145.98679   -29271.636    12578.862 
  142000    267.04593   -29157.134    127.36211   -29284.496    49764.816 
  142200    292.91245   -29130.662    139.69862   -29270.361    -5424.878 
  142400    302.42672   -29128.462    144.23626   -29272.698     8009.418 
  142600    290.44413   -29147.592    138.52141   -29286.113   -7752.2755 
  142800    282.40041   -29149.341    134.68512   -29284.026    35786.067 
  143000    306.91011    -29121.93    146.37452   -29268.305   -7099.0589 
  143200    289.92629   -29136.327    138.27443   -29274.601    1415.4295 
  143400    284.44896   -29158.075    135.66213   -29293.738   -30411.153 
  143600    320.82425   -29120.552    153.01058   -29273.562    24817.521 
  143800    297.51306   -29131.676    141.89279   -29273.568   -13931.835 
  144000    289.51952    -29153.52    138.08043     -29291.6   -6860.5787 
  144200    309.78107   -29121.862    147.74377   -29269.606    12849.741 
  144400    309.88672   -29130.795    147.79415    -29278.59    7891.1246 
  144600    292.31358   -29150.334      139.413   -29289.747    8888.1112 
  144800    281.50201   -29137.467    134.25664   -29271.723   -11540.386 
  145000    290.42312   -29134.696    138.51138   -29273.207    7339.7681 
  145200    295.02398   -29152.762    140.70567   -29293.467   -33855.988 
  145400    294.99885   -29162.159    140.69369   -29302.852   -16752.004 
  145600    304.40906   -29133.008     145.1817    -29278.19   -11936.372 
  145800    302.64996   -29130.506    144.34273   -29274.849    4602.2105 
  146000    271.35473   -29158.549    129.41711   -29287.966   -16767.022 
  146200    320.42298   -29136.154     152.8192   -29288.973    19550.583 
  146400    306.34413   -29130.658    146.10459   -29276.762    57604.499 
  146600    281.66651   -29169.144     134.3351   -29303.479    21130.975 
  146800    295.77503   -29147.867    141.06387   -29288.931    -15715.64 
  147000     325.4446   -29128.803    155.21416   -29284.017   -23352.527 
  147200    296.30615   -29160.569    141.31718   -29301.886    24439.249 
  147400    275.80544   -29147.655    131.53978   -29279.195    35750.097 
  147600    303.66299   -29130.357    144.82587   -29275.183    16885.205 
  147800    311.88531   -29114.205    148.74734   -29262.952   -12635.259 
  148000    301.54245   -29126.086    143.81452   -29269.901   -9267.1191 
  148200    290.81847   -29144.349    138.69994   -29283.049   -6221.1659 
  148400    326.28428   -29106.618    155.61463   -29262.233     25987.05 
  148600    315.49403   -29125.074    150.46845   -29275.543   -16856.522 
  148800    314.14851   -29138.325    149.82673   -29288.152   -5426.6756 
  149000    293.95521   -29138.244    140.19594    -29278.44   -11772.673 
  149200    341.87701   -29104.366    163.05127   -29267.418    3415.2265 
  149400    288.30326   -29139.748    137.50036   -29277.248    897.41695 
  149600    292.55459   -29144.762    139.52795    -29284.29   -9122.6066 
  149800    323.07691   -29111.746    154.08494   -29265.831    26724.192 
  150000    335.50738   -29132.296     160.0134    -29292.31    28320.759 
  150200    274.72033   -29140.036    131.02226   -29271.058     35848.42 
  150400    328.49736   -29118.345    156.67012   -29275.015   -12979.856 
  150600    316.63562   -29113.627     151.0129    -29264.64   -22133.158 
  150800    310.86813   -29140.259    148.26222   -29288.522   -35508.346 
  151000    335.94661   -29119.255    160.22289   -29279.477    12459.156 
  151200    289.82403   -29102.019    138.22566   -29240.244   -59334.859 
  151400    300.30531   -29139.447    143.22449   -29282.671   -27303.258 
  151600    292.55984   -29142.616    139.53045   -29282.146   -6515.9269 
  151800    336.01647   -29112.496    160.25621   -29272.752   -5695.4491 
  152000    293.49142   -29145.943    139.97475   -29285.918    30307.885 
  152200    301.04841   -29139.651     143.5789    -29283.23    9871.8619 
  152400    302.54695   -29116.283     144.2936   -29260.577    6375.2771 
  152600    324.61379   -29129.605    154.81793   -29284.423   -22974.351 
  152800    291.29877   -29148.096    138.92901   -29287.025    21454.388 
  153000    327.52121   -29115.992    156.20456   -29272.197   -24631.427 
  153200    346.44677    -29124.44    165.23072    -29289.67    5426.6832 
  153400    283.04156   -29147.634     134.9909   -29282.625   -20949.333 
  153600    349.70555    -29124.42    166.78493   -29291.205   -15478.533 
  153800    310.78411   -29122.513    148.22214   -29270.735    59966.174 
  154000    287.24651   -29149.187    136.99636   -29286.183   -12186.891 
  154200     310.4953    -29136.33     148.0844   -29284.414   -47822.372 
  154400     321.0096   -29108.146    153.09898   -29261.245    5296.3198 
  154600    287.98968   -29144.856     137.3508   -29282.207    37987.877 
  154800     278.9926   -29147.138    133.05983   -29280.197    20673.295 
  155000    322.92529   -29117.353    154.01263   -29271.366   -38980.659 
  155200    318.23305   -29134.174    151.77476   -29285.949    52523.862 
  155400    284.98731   -29141.237    135.91889   -29277.156    27098.025 
  155600    334.07879   -29108.276    159.33207   -29267.608    5859.7838 
  155800    322.28827   -29120.414    153.70882   -29274.123    9627.8406 
  156000    271.34669   -29140.926    129.41327   -29270.339    -26085.47 
  156200    317.61704    -29119.76    151.48097   -29271.241   -10878.272 
  156400    319.18913     -29103.1    152.23075   -29255.331   -36953.428 
  156600    302.45817   -29131.688    144.25126   -29275.939    1784.8592 
  156800    287.97716   -29147.152    137.34483   -29284.496     2080.041 
  157000    284.67087   -29120.298    135.76797   -29256.066   -24899.552 
  157200    315.78283   -29131.106    150.60618   -29281.712   -31568.043 
  157400    303.46485   -29145.278    144.73137   -29290.009    50286.107 
  157600    312.64683   -29124.658    149.11053   -29273.768   -26046.341 
  157800      311.736     -29101.7    148.67613   -29250.376    46338.851 
  158000    295.94092   -29139.187    141.14299    -29280.33   -35811.273 
  158200    321.01721   -29126.511    153.10261   -29279.613    28998.424 
  158400    320.37641   -29114.935      152.797   -29267.732   -35382.612 
  158600    288.15562   -29146.337    137.42995   -29283.766   -15623.617 
  158800    308.78448   -29125.494    147.26846   -29272.762   -16056.495 
  159000    308.97465   -29122.004    147.35916   -29269.363    9562.7391 
  159200    304.01785   -29143.188    144.99511   -29288.183    12205.593 
  159400    289.60845   -29135.054    138.12284   -29273.176   -20532.058 
  159600    296.76052   -29132.769    141.53388   -29274.303   -8608.6939 
  159800    313.99736   -29139.744    149.75464   -29289.499    20275.598 
  160000    272.16522   -29159.571    129.80365   -29289.375    15840.762 
  160200    293.64108   -29123.641    140.04613   -29263.687   -3851.6599 
  160400    313.83696   -29140.324    149.67814   -29290.002    7776.8659 
  160600    294.78079   -29151.122    140.58969   -29291.712    31565.957 
  160800    297.80074   -29140.539    142.02999   -29282.569   -4533.3374 
  161000     293.7101   -29138.682    140.07904   -29278.761    3162.5635 
  161200    263.81104   -29152.802     125.8193   -29278.621    7322.8388 
  161400    296.51825   -29129.909    141.41833   -29271.328    3222.6126 
  161600    311.19471   -29129.992    148.41797    -29278.41    -2979.269 
  161800     242.4591   -29171.184    115.63592    -29286.82   -3878.7616 
  162000    312.79876   -29156.901    149.18299   -29306.084    2757.0488 
  162200    306.35418   -29131.065    146.10938   -29277.174   -59215.203 
  162400    311.97602   -29116.925     148.7906   -29265.716   -65720.586 
  162600     302.5831   -29138.244    144.31084   -29282.555    929.11857 
  162800    292.39958   -29144.599    139.45402   -29284.053    2508.7495 
  163000    321.75506   -29115.522    153.45451   -29268.977   -1918.3371 
  163200    321.11344   -29128.233    153.14851   -29281.382   -12411.675 
  163400    291.97837   -29140.822    139.25313   -29280.075   -2754.6485 
  163600    320.24263   -29133.058    152.73319   -29285.791    6059.7794 
  163800    314.87769   -29118.425    150.17449     -29268.6   -47703.584 
  164000    286.13314   -29146.606    136.46536   -29283.071    53189.278 
  164200    281.80132   -29144.673    134.39939   -29279.072   -12412.787 
  164400    316.04979   -29115.277     150.7335   -29266.011   -17299.886 
  164600    298.40568   -29136.374     142.3185   -29278.692    4337.6097 
  164800    276.99927   -29144.967    132.10915   -29277.076     27923.91 
  165000    324.16665   -29105.988    154.60467   -29260.593    4654.7898 
  165200    278.37036   -29135.642    132.76307   -29268.405    9008.0848 
  165400    278.79187   -29137.926     132.9641    -29270.89    15950.951 
  165600    337.51143   -29105.173     160.9692   -29266.142     13691.78 
  165800    312.07237   -29132.178    148.83655   -29281.015    3050.1253 
  166000    284.45912   -29140.654    135.66698   -29276.321    16979.172 
  166200    356.87743   -29108.892    170.20541   -29279.097    13194.125 
  166400    309.69082   -29137.833    147.70072   -29285.533   -23511.818 
  166600     302.4934   -29138.613    144.26806   -29282.882    12233.633 
  166800    313.74673   -29126.348    149.63511   -29275.984   -25266.205 
  167000    254.05199   -29153.575    121.16491    -29274.74    1132.3127 
  167200    303.75786   -29140.115    144.87112   -29284.986    18384.321 
  167400    322.54726   -29131.957    153.83234   -29285.789   -14959.311 
  167600    297.39026   -29150.475    141.83422    -29292.31     39616.83 
  167800    282.55107   -29140.389    134.75697   -29275.145    25760.782 
  168000    320.84168   -29123.377     153.0189   -29276.396    49476.726 
  168200    289.01082   -29151.448    137.83782   -29289.286    28949.968 
  168400    293.67674   -29124.498    140.06313   -29264.561   -43943.346 
  168600    299.94246   -29133.808    143.05144   -29276.859     54021.46 
  168800    301.45567   -29145.273    143.77313   -29289.047    72510.749 
  169000    338.95165    -29106.14    161.65608   -29267.796    27677.246 
  169200    309.35541   -29130.357    147.54076   -29277.898    29131.714 
  169400    309.02458   -29146.169    147.38297   -29293.552    15219.079 
  169600    306.43076     -29128.9     146.1459   -29275.046   -2470.5985 
  169800    309.14478   -29127.789     147.4403   -29275.229    9524.1853 
  170000    265.52045   -29146.178    126.63456   -29272.812   -40481.025 
  170200     316.3179   -29122.858    150.86137   -29273.719    4300.9026 
  170400    325.89978   -29119.989    155.43126    -29275.42   -12447.903 
  170600    268.57713   -29153.694    128.09239   -29281.786     11586.84 
  170800     308.0348   -29125.965    146.91092   -29272.876    -6694.054 
  171000    334.97495   -29120.264    159.75947   -29280.023   -12818.665 
  171200    289.10881   -29157.361    137.88455   -29295.246   -1721.9633 
  171400     296.9906   -29140.089    141.64361   -29281.732      18083.2 
  171600    278.08293   -29129.726    132.62598   -29262.352   -30807.195 
  171800    262.62902   -29159.454    125.25556   -29284.709   -20884.116 
  172000    285.16666   -29145.363    136.00442   -29281.368    735.02089 
  172200    269.66115   -29133.513    128.60939   -29262.123    -4754.635 
  172400    301.38221   -29148.839     143.7381   -29292.577    1213.3137 
  172600    287.71868    -29157.59    137.22156   -29294.812    -11268.52 
  172800    306.06947   -29135.262    145.97359   -29281.236     2232.619 
  173000    274.39458   -29144.831     130.8669   -29275.698    6405.1415 
  173200    301.85787   -29151.032    143.96496   -29294.996   -11995.195 
  173400    314.43742   -29119.813    149.96452   -29269.778   -5919.6443 
  173600    278.53891   -29143.434    132.84345   -29276.278    18354.441 
  173800    302.39184   -29146.111    144.21962   -29290.331   -31391.342 
  174000    355.78652   -29105.945    169.68513   -29275.631    5026.7492 
  174200    314.84066   -29142.234    150.15683   -29292.391   -22661.024 
  174400    319.01705    -29139.74    152.14868   -29291.889   -33713.245 
  174600    340.14683   -29113.971    162.22609   -29276.197   -12696.317 
  174800    288.53703   -29143.779    137.61185    -29281.39    62874.744 
  175000    308.15558   -29128.771    146.96852   -29275.739    8401.1715 
  175200    301.20276    -29153.21    143.65251   -29296.862    6397.8441 
  175400    271.01188   -29148.175    129.25359   -29277.429   -15190.619 
  175600    294.73535    -29130.14    140.56801   -29270.708    14560.339 
  175800    291.11137   -29139.845    138.83963   -29278.684    16298.697 
  176000    270.40914   -29157.561    128.96612   -29286.527    17477.935 
  176200    316.28514   -29130.321    150.84575   -29281.167   -14913.492 
  176400    290.71253   -29139.587    138.64941   -29278.237   -21963.757 
  176600    265.56594   -29157.916    126.65626   -29284.572    24641.371 
  176800    300.56514   -29128.515    143.34842   -29271.864   -14438.089 
  177000    291.11203   -29133.149    138.83995   -29271.989   -16731.596 
  177200    283.95956   -29162.869    135.42872   -29298.298   -9954.0322 
  177400    290.96992   -29156.901    138.77217   -29295.673   -26553.586 
  177600    276.12113   -29135.304    131.69034   -29266.994   -3486.5441 
  177800    324.85956   -29115.496    154.93514   -29270.431    -7191.997 
[...]
  950000    289.77163   -29182.255    138.20067   -29320.455    13029.873 
  950200    306.50105   -29157.155    146.17943   -29303.334   -9182.2151 
  950400    307.17117    -29156.11    146.49902   -29302.609   -10689.912 
  950600    280.60932   -29181.888    133.83089   -29315.719   -4279.9289 
  950800     284.7162   -29164.462    135.78959   -29300.251   -26572.457 
  951000     293.3846   -29155.091     139.9238   -29295.015    8929.3476 
  951200    270.16704    -29185.66    128.85066   -29314.511   -18941.122 
  951400    337.32134   -29160.898    160.87854   -29321.776   -20225.957 
  951600    310.09996   -29158.986    147.89585   -29306.882   -17631.455 
  951800    294.55932    -29164.73    140.48406   -29305.214    17789.433 
  952000    291.43241   -29170.879    138.99275   -29309.872   -2347.6063 
  952200    272.02354   -29185.166    129.73608   -29314.902    28397.311 
  952400    310.14518   -29154.699    147.91742   -29302.617   -25694.958 
  952600    290.22057   -29170.978    138.41478   -29309.393    46468.233 
  952800    259.02536   -29184.746    123.53686   -29308.283    17428.868 
  953000    298.46402   -29156.395    142.34633   -29298.741    732.26236 
  953200    285.02521   -29182.232    135.93696   -29318.169   -1268.2753 
  953400    305.03365   -29156.071    145.47958   -29301.551   -10811.235 
  953600     290.7432   -29160.346    138.66404    -29299.01   -1332.5778 
  953800     292.0927   -29170.809    139.30766   -29310.116   -2531.8654 
  954000    307.88871   -29164.491    146.84124   -29311.332     7970.501 
  954200    337.06969   -29144.355    160.75852   -29305.113   -37204.803 
  954400    286.84343   -29174.939    136.80412   -29311.743   -42183.322 
  954600    304.10386   -29169.718    145.03614   -29314.754   -2717.7248 
  954800    355.78628   -29142.278    169.68501   -29311.963   -22800.962 
  955000    292.32127   -29171.729    139.41667   -29311.146   -9258.9618 
  955200    300.61408   -29170.164    143.37175   -29313.536   -29286.871 
  955400    308.41152   -29148.958    147.09058   -29296.049    8980.5023 
  955600     337.8599   -29128.766    161.13539   -29289.901    7293.1096 
  955800    287.49062    -29169.94    137.11279   -29307.052   -9515.9308 
  956000    308.15701    -29174.08     146.9692    -29321.05   -23639.664 
  956200    333.71589   -29144.833    159.15899   -29303.992   -36614.891 
  956400    294.75255   -29163.663    140.57622   -29304.239    -3263.954 
  956600    308.77153   -29167.162    147.26228   -29314.424    3513.6221 
  956800     319.7734   -29134.783     152.5094   -29287.292    15157.692 
  957000    313.05395    -29147.32     149.3047   -29296.625   -8795.7268 
  957200     298.5586   -29163.101    142.39144   -29305.492    38636.135 
  957400    294.39072    -29158.16    140.40365   -29298.564   -35153.369 
  957600    326.45197    -29139.73    155.69461   -29295.424    22763.956 
  957800    280.17755   -29171.433    133.62497   -29305.057   -50978.427 
  958000    308.53528    -29157.18    147.14961   -29304.329    33523.433 
  958200    303.26429   -29128.628    144.63572   -29273.264   -7753.2152 
  958400     326.9321   -29161.148     155.9236   -29317.071    20026.602 
  958600    287.19526   -29172.278    136.97192    -29309.25    13760.573 
  958800    306.87158   -29138.511    146.35614   -29284.867   -4898.4811 
  959000    312.16888   -29157.891    148.88258   -29306.774   -2409.2217 
  959200    317.82436   -29164.473    151.57985   -29316.053    61939.007 
  959400    291.54338   -29178.287    139.04567   -29317.333    34864.371 
  959600    286.23256   -29179.395    136.51278   -29315.908   -32129.511 
  959800    309.33899   -29155.969    147.53292   -29303.502   -5758.9792 
  960000    266.05094   -29180.085    126.88757   -29306.973    27136.519 
  960200    294.83326   -29173.158    140.61471   -29313.773   -25558.131 
  960400    297.75304    -29164.59    142.00724   -29306.597   -57274.878 
  960600    301.71006   -29151.204    143.89446   -29295.098   -3173.2143 
  960800    265.78094   -29180.987     126.7588   -29307.745    30597.272 
  961000    314.41828   -29163.914    149.95539    -29313.87    5397.3737 
  961200    325.07194   -29154.262    155.03644   -29309.298   -33070.354 
  961400     290.3653   -29175.119    138.48381   -29313.602   -31478.436 
  961600    259.02006   -29197.331    123.53433   -29320.866   -36740.401 
  961800    300.02297   -29166.047    143.08984   -29309.137   -31701.647 
  962000    297.23749   -29156.235    141.76136   -29297.997    16938.609 
  962200    294.19793   -29168.424     140.3117   -29308.736    9150.7764 
  962400    289.48248   -29177.427    138.06277    -29315.49    55389.671 
  962600    309.13409   -29149.088     147.4352   -29296.523   -13288.267 
  962800    319.86011    -29169.38    152.55076   -29321.931   -10201.833 
  963000    284.23544   -29175.065     135.5603   -29310.625   -16475.329 
  963200    315.02678    -29146.83     150.2456   -29297.075    13099.841 
  963400    269.15502   -29176.689      128.368   -29305.057    3947.2844 
  963600    294.11034   -29164.631    140.26993   -29304.901     1412.707 
  963800    315.76161   -29148.425    150.59606   -29299.021    36630.702 
  964000    283.26576   -29174.083    135.09783   -29309.181    8972.2387 
  964200    271.47651   -29177.468    129.47519   -29306.943   -28384.702 
  964400    309.77242   -29139.892    147.73964   -29287.632   -27011.761 
  964600    309.64069    -29166.33    147.67681   -29314.006    15057.557 
  964800       293.91   -29174.029    140.17438   -29314.203    30715.611 
  965000    338.33583   -29139.431    161.36238   -29300.793    27896.961 
  965200     316.7299   -29152.154    151.05787   -29303.212   -12903.942 
  965400     300.9124   -29176.165    143.51403   -29319.679   -2771.6673 
  965600    316.19863   -29164.226    150.80449   -29315.031   -19998.537 
  965800    303.30593   -29152.715    144.65558   -29297.371   -47762.388 
  966000    309.95627    -29175.82    147.82732   -29323.647    78581.112 
  966200    310.66294    -29165.53    148.16435   -29313.694     14467.15 
  966400    316.92295   -29149.979    151.14994   -29301.129    21627.439 
  966600    282.98004   -29172.614    134.96156   -29307.576    3347.3356 
  966800    301.84721   -29168.902    143.95987   -29312.862   -13162.891 
  967000    285.34665   -29141.498    136.09027   -29277.588    14485.584 
  967200    306.67793   -29171.936    146.26379     -29318.2    5624.8212 
  967400    304.07531   -29165.349    145.02252   -29310.371   -17101.631 
  967600    332.72993    -29137.55    158.68876   -29296.239    13513.677 
  967800    307.58267   -29160.377    146.69528   -29307.072   -8932.4355 
  968000    297.77626   -29173.603    142.01832   -29315.621    -2264.372 
  968200    332.64428   -29145.984     158.6479   -29304.632   -20179.307 
  968400    293.15367   -29175.735    139.81366   -29315.549    49873.228 
  968600    321.86693   -29174.624    153.50787   -29328.132   -36743.671 
  968800    321.94963   -29153.181    153.54731   -29306.728    1314.8391 
  969000    285.76964   -29187.278      136.292    -29323.57   -39557.681 
  969200    288.45768   -29163.597    137.57401   -29301.171   -41158.086 
  969400    319.17671   -29159.152    152.22483   -29311.377   -46802.053 
  969600    267.11496   -29191.996    127.39503   -29319.391    5359.7581 
  969800    281.25587   -29175.106    134.13925   -29309.246   -43139.474 
  970000     299.4929   -29161.277    142.83703   -29304.114   -1010.3951 
  970200    306.70369   -29148.608    146.27607   -29294.884   -1093.5423 
  970400    281.08224   -29173.023    134.05644    -29307.08   -24822.057 
  970600    304.88761   -29174.812    145.40993   -29320.222   -17264.814 
  970800    294.83607   -29146.507    140.61605   -29287.123    14560.876 
  971000    309.22127    -29169.46    147.47678   -29316.937   -4430.2342 
  971200    286.26189   -29174.183    136.52677   -29310.709    4618.3485 
  971400    309.13131   -29142.675    147.43388   -29290.109    6376.0592 
  971600    307.92252   -29172.715    146.85737   -29319.573   -23700.069 
  971800    284.49519   -29171.989    135.68418   -29307.674   -11943.771 
  972000     329.5396   -29143.825    157.16719   -29300.992    14697.665 
  972200    297.09327    -29155.47    141.69258   -29297.163    31776.366 
  972400    290.23804   -29173.885    138.42312   -29312.308    15685.164 
  972600    289.66895   -29179.379     138.1517    -29317.53    27533.982 
  972800    305.45293    -29166.54    145.67955    -29312.22    37186.609 
  973000    319.51775   -29162.512    152.38747     -29314.9    1686.5124 
  973200    254.47133   -29187.594    121.36491   -29308.959    13836.022 
  973400     320.5232   -29164.282      152.867   -29317.149   -42211.202 
  973600    294.46091   -29164.237    140.43713   -29304.674    38887.272 
  973800    262.47788   -29196.901    125.18347   -29322.084   -20301.217 
  974000    291.03674   -29166.681    138.80404   -29305.485    43701.017 
  974200    283.71401   -29160.189    135.31161   -29295.501   -25044.954 
  974400    262.61366   -29193.849    125.24823   -29319.097   -12986.065 
  974600    303.19144   -29170.815    144.60097   -29315.416   -1651.1976 
  974800    285.29323   -29164.174    136.06479   -29300.239     29592.71 
  975000    271.48531   -29194.034    129.47938   -29323.513   -14613.785 
  975200    277.94102   -29167.672     132.5583   -29300.231    29037.774 
  975400    321.03632   -29160.244    153.11172   -29313.356   -28087.313 
  975600    300.50445   -29183.877    143.31947   -29327.196    20583.957 
  975800    265.20886   -29175.939    126.48596   -29302.425    31871.686 
  976000    317.13825   -29162.689    151.25262   -29313.942   -31861.071 
  976200    282.98424   -29179.702    134.96356   -29314.665     -39338.5 
  976400    308.47864   -29153.253     147.1226   -29300.375    6660.3159 
  976600    280.34568   -29159.493    133.70515   -29293.198    10943.507 
  976800    284.01024   -29171.632    135.45289   -29307.085   -2966.4136 
  977000    298.13884   -29167.755    142.19124   -29309.947    35465.284 
  977200    317.95136   -29159.196    151.64042   -29310.837    5560.4699 
  977400    294.38797   -29174.248    140.40234    -29314.65    20780.336 
  977600    289.03113   -29179.201    137.84751   -29317.048    20702.525 
  977800    304.29339    -29152.75    145.12653   -29297.876    10032.961 
  978000    297.69149   -29175.423    141.97788     -29317.4    17174.294 
  978200    321.89013   -29156.576    153.51894   -29310.095   -527.66628 
  978400    324.42863   -29144.888    154.72962   -29299.617    27304.737 
  978600    275.92321   -29168.323    131.59595   -29299.919   -19107.174 
  978800    292.52691   -29166.376    139.51474   -29305.891    -7260.796 
  979000    323.50694   -29141.329    154.29004   -29295.619    22230.778 
  979200    311.30242   -29172.962    148.46934   -29321.431   -2061.6355 
  979400     285.6929   -29167.526     136.2554   -29303.782   -30031.625 
  979600    321.76801   -29142.372    153.46069   -29295.832    -38263.99 
  979800    287.37312   -29170.768    137.05675   -29307.825    1182.7513 
  980000    326.67406   -29172.687    155.80053   -29328.488   -26433.599 
  980200    284.55242   -29142.299    135.71147    -29278.01    6604.6885 
  980400    307.03165   -29164.449    146.43248   -29310.881    11285.964 
  980600    282.44434   -29169.829    134.70607   -29304.535   -15984.067 
  980800    320.52757    -29150.71    152.86909   -29303.579    -12794.35 
  981000    280.51264   -29147.358    133.78479   -29281.142    21806.838 
  981200    258.88712   -29175.586    123.47093   -29299.057    35313.425 
  981400    321.93081   -29155.335    153.53834   -29308.873    28403.972 
  981600    301.94139   -29143.012    144.00479   -29287.017   -3632.7689 
  981800    266.43052   -29163.119     127.0686   -29290.188    3661.2712 
  982000     305.4994   -29168.142    145.70171   -29313.844   -19123.075 
  982200    342.00656    -29140.83    163.11305   -29303.943   -8607.9574 
  982400     329.0722   -29153.079    156.94427   -29310.023    63465.346 
  982600    296.43924   -29168.147    141.38065   -29309.528   -18292.758 
  982800    317.63218   -29150.284    151.48819   -29301.772    1568.1764 
  983000    325.04989   -29138.537    155.02592   -29293.563      2912.37 
  983200    290.12967   -29174.389    138.37143    -29312.76   -6741.7095 
  983400     279.6384   -29158.394    133.36783   -29291.762    27189.778 
  983600    304.17502   -29151.727    145.07007   -29296.797    22005.615 
  983800    258.38348    -29181.55    123.23073   -29304.781    17462.465 
  984000    317.38578   -29156.924    151.37068   -29308.294   -17885.513 
  984200    251.46663   -29174.724    119.93188   -29294.656    13103.733 
  984400    301.54005   -29176.908    143.81338   -29320.721   -57584.819 
  984600    305.07328   -29162.756    145.49848   -29308.255    5722.0679 
  984800    282.36948   -29169.919    134.67037   -29304.589    -34920.58 
  985000    274.40631   -29187.553    130.87249   -29318.425   -5718.5212 
  985200    324.55701    -29158.56    154.79085   -29313.351   -15688.494 
  985400    307.30318   -29164.003    146.56199   -29310.565    28594.067 
  985600    278.99912    -29190.14    133.06294   -29323.203   -12768.117 
  985800    276.89902   -29170.283    132.06134   -29302.344    2656.5943 
  986000    313.17294   -29160.515    149.36145   -29309.876   -46971.058 
  986200    338.44516   -29132.358    161.41452   -29293.772   -28063.246 
  986400    296.26781   -29169.127    141.29889   -29310.426    17706.643 
  986600    288.38647    -29165.45    137.54005    -29302.99    11091.888 
  986800    338.51674   -29140.913    161.44866   -29302.362   -629.00468 
  987000    280.89315   -29178.913    133.96626    -29312.88     24718.87 
  987200    290.83283   -29168.106    138.70679   -29306.813    11965.578 
  987400    324.84069   -29145.253    154.92614   -29300.179    9117.5487 
  987600    284.59271   -29180.381    135.73069   -29316.112   -3738.2616 
  987800    292.16095    -29164.74    139.34021    -29304.08    14165.116 
  988000    316.61601   -29151.361    151.00355   -29302.364    11906.186 
  988200    284.22413   -29188.391     135.5549   -29323.946   -28784.722 
  988400     313.8582    -29162.73    149.68827   -29312.418    15322.114 
  988600    312.13398   -29150.386    148.86593   -29299.252    31845.036 
  988800     331.9593   -29143.727    158.32122   -29302.048   -105.37649 
  989000    278.25593    -29179.94    132.70849   -29312.648    25436.017 
  989200    317.66922   -29163.649    151.50586   -29315.155    30113.581 
  989400    314.14616   -29153.194     149.8256   -29303.019   -14792.387 
  989600    305.62628    -29176.13    145.76222   -29321.892    18073.076 
  989800    319.07774    -29166.75    152.17762   -29318.927   -29746.286 
  990000    319.50468   -29148.787    152.38124   -29301.169   -33203.746 
  990200    304.36251   -29175.958    145.15949   -29321.117    3122.6233 
  990400    280.80795    -29155.58    133.92562   -29289.505   -19176.789 
  990600    318.77951   -29143.592    152.03539   -29295.628   -13285.157 
  990800    299.27938   -29165.742     142.7352   -29308.477   -9098.1767 
  991000    298.38695   -29168.485    142.30957   -29310.795    13222.952 
  991200    302.81728   -29154.508    144.42253    -29298.93    -15546.85 
  991400    310.15845   -29162.823    147.92375   -29310.747    19842.683 
  991600    261.72554   -29182.955    124.82466    -29307.78     56013.93 
  991800     321.5113   -29161.103    153.33826   -29314.441    26894.773 
  992000    276.12848   -29164.756    131.69385    -29296.45   -34957.208 
  992200    291.97508   -29184.299    139.25156   -29323.551   -25642.594 
  992400    302.74171   -29171.803    144.38648   -29316.189     4820.204 
  992600    305.16359   -29155.539    145.54155   -29301.081   -12014.364 
  992800     271.3169   -29183.947    129.39906   -29313.346   -38504.163 
  993000     295.0705    -29163.34    140.72786   -29304.068     18072.21 
  993200    314.94573   -29156.074    150.20695    -29306.28    39582.903 
  993400    294.41693   -29179.021    140.41615   -29319.437   -23718.519 
  993600    319.20415   -29144.309    152.23791   -29296.547    44881.258 
  993800    318.52302   -29165.975    151.91306   -29317.888   -20808.077 
  994000    285.03781   -29170.288    135.94297   -29306.231   -45758.365 
  994200    371.97928   -29139.868    177.40793   -29317.275   -17080.625 
  994400    328.56187   -29140.696    156.70089   -29297.396   -302.34629 
  994600    285.21031   -29169.255    136.02524    -29305.28   -68653.018 
  994800    304.18439   -29169.935    145.07454    -29315.01    12653.874 
  995000    296.55721   -29143.527    141.43691   -29284.964    19585.268 
  995200    311.73383   -29175.154    148.67509   -29323.829   -42635.973 
  995400    294.61886   -29163.569    140.51246   -29304.081   -29535.378 
  995600    342.80137   -29150.118    163.49212    -29313.61    -10062.19 
  995800    280.85342   -29167.609    133.94731   -29301.556   -10742.196 
  996000    313.21189   -29169.358    149.38002   -29318.738   -807.63163 
  996200    324.63058   -29143.882    154.82593   -29298.708    -19165.73 
  996400    303.43255    -29172.31    144.71596   -29317.026    15188.509 
  996600    290.63554   -29165.152    138.61269   -29303.765     11943.44 
  996800    292.74061   -29176.009    139.61666   -29315.626   -2645.9642 
  997000    291.63355   -29183.114    139.08867   -29322.203   -21155.232 
  997200    330.66631   -29159.999    157.70455   -29317.703    29753.776 
  997400     267.8174   -29180.248    127.73005   -29307.978   -16807.041 
  997600    313.27474   -29154.999       149.41   -29304.409   -9703.1382 
  997800    311.12367   -29158.936    148.38409    -29307.32     13677.23 
  998000    300.95458    -29177.17    143.53415   -29320.704   -26321.925 
  998200    323.68412    -29163.37    154.37454   -29317.745   -41798.564 
  998400    293.49323   -29165.234    139.97561    -29305.21   -22747.116 
  998600    285.94913    -29178.37    136.37761   -29314.748    12877.794 
  998800    295.29024   -29190.765    140.83266   -29331.597    3480.3306 
  999000    293.10252   -29162.049    139.78927   -29301.839    -61524.67 
  999200    286.58664   -29172.785    136.68166   -29309.466   -16412.716 
  999400    275.78949   -29192.904    131.53217   -29324.436    18.532011 
  999600    288.95955   -29157.224    137.81336   -29295.038   -30021.362 
  999800    289.35159   -29165.446    138.00034   -29303.446    17095.477 
 1000000    266.82943   -29190.581    127.25886    -29317.84    18308.051 
Loop time of 6024.87 on 8 procs for 1000000 steps with 161 atoms

Performance: 3.585 ns/day, 6.694 hours/ns, 165.979 timesteps/s
99.2% CPU use with 8 MPI tasks x no OpenMP threads

MPI task timing breakdown:
Section |  min time  |  avg time  |  max time  |%varavg| %total
---------------------------------------------------------------
Pair    | 4938.7     | 5116.6     | 5242       | 156.5 | 84.93
Neigh   | 0.68949    | 0.70282    | 0.71145    |   0.8 |  0.01
Comm    | 69.134     | 195.14     | 372.57     | 802.7 |  3.24
Output  | 0.13235    | 0.14373    | 0.21338    |   6.9 |  0.00
Modify  | 707.32     | 707.95     | 709.49     |   2.5 | 11.75
Other   |            | 4.306      |            |       |  0.07

Nlocal:    20.125 ave 45 max 4 min
Histogram: 2 0 2 1 0 1 1 0 0 1
Nghost:    740.375 ave 758 max 713 min
Histogram: 1 0 0 0 2 1 1 1 1 1
Neighs:    2120 ave 4469 max 470 min
Histogram: 2 0 1 2 0 0 2 0 0 1

Total # of neighbors = 16960
Ave neighs/atom = 105.342
Neighbor list builds = 706
Dangerous builds = 0

unfix 1
unfix output
undump 1

Please see the log.cite file for references relevant to this simulation

Total wall time: 1:41:05
