ITEM: TIMESTEP
0
ITEM: NUMBER OF ATOMS
49
ITEM: BOX BOUNDS pp pp pp
0.0000000000000000e+00 1.1000000000000000e+01
0.0000000000000000e+00 1.1002000000000001e+01
0.0000000000000000e+00 1.1000000000000000e+01
ITEM: ATOMS id type x y z 
10 1 4.603 4.603 4.603 
11 1 3.085 3.085 3.085 
12 1 3.796 3.796 3.796 
46 1 0.726 0.725 0.725 
47 1 2.26 2.259 2.26 
48 1 1.551 1.55 1.55 
49 2 4.929 4.839 3.32 
19 1 4.546 4.545 6.226 
20 1 3.013 3.013 7.764 
21 1 3.721 3.721 7.053 
31 1 0.668 0.667 10.103 
32 1 2.187 2.187 8.589 
33 1 1.476 1.475 9.298 
16 1 4.546 6.225 4.546 
17 1 3.013 7.765 3.013 
18 1 3.721 7.053 3.722 
25 1 0.668 10.103 0.668 
26 1 2.188 8.589 2.188 
27 1 1.476 9.298 1.476 
4 1 4.608 6.169 6.169 
5 1 3.086 7.684 7.684 
6 1 3.799 6.974 6.974 
37 1 0.729 10.046 10.046 
38 1 2.259 8.509 8.508 
39 1 1.552 9.219 9.219 
13 1 6.225 4.546 4.546 
14 1 7.764 3.013 3.013 
15 1 7.053 3.721 3.722 
28 1 10.102 0.667 0.668 
29 1 8.589 2.187 2.188 
30 1 9.298 1.475 1.476 
1 1 6.168 4.608 6.169 
2 1 7.684 3.086 7.684 
3 1 6.974 3.799 6.974 
40 1 10.045 0.728 10.046 
41 1 8.508 2.259 8.508 
42 1 9.218 1.551 9.218 
7 1 6.169 6.169 4.608 
8 1 7.684 7.684 3.086 
9 1 6.974 6.974 3.799 
43 1 10.046 10.047 0.729 
44 1 8.508 8.509 2.259 
45 1 9.219 9.219 1.552 
22 1 6.229 6.229 6.229 
23 1 7.764 7.765 7.765 
24 1 7.055 7.056 7.055 
34 1 10.108 10.108 10.107 
35 1 8.59 8.59 8.59 
36 1 9.301 9.301 9.3 
ITEM: TIMESTEP
10
ITEM: NUMBER OF ATOMS
49
ITEM: BOX BOUNDS pp pp pp
0.0000000000000000e+00 1.1000000000000000e+01
0.0000000000000000e+00 1.1002000000000001e+01
0.0000000000000000e+00 1.1000000000000000e+01
ITEM: ATOMS id type x y z 
10 1 4.56046 4.59339 4.70798 
11 1 3.02752 3.0306 3.063 
12 1 3.76283 3.76462 3.7464 
46 1 0.739995 0.739771 0.740287 
47 1 2.26691 2.2657 2.26822 
48 1 1.55445 1.55427 1.55532 
49 2 4.92709 4.76561 2.94484 
19 1 4.53155 4.52838 6.29003 
20 1 2.98905 2.98896 7.78252 
21 1 3.69921 3.69951 7.08609 
31 1 0.674379 0.672769 10.0913 
32 1 2.1868 2.18668 8.58964 
33 1 1.47673 1.47611 9.29595 
16 1 4.52503 6.37699 4.63359 
17 1 2.99756 7.77282 2.99662 
18 1 3.71031 7.09398 3.73061 
25 1 0.673087 10.0907 0.674957 
26 1 2.19192 8.5846 2.19216 
27 1 1.48262 9.2903 1.48287 
4 1 4.59276 6.2061 6.18684 
5 1 3.0763 7.68945 7.69591 
6 1 3.7889 6.99336 6.98169 
37 1 0.737629 10.0371 10.0375 
38 1 2.26841 8.49957 8.49915 
39 1 1.56254 9.20852 9.20811 
13 1 6.34718 4.52148 4.57898 
14 1 7.77649 2.99293 2.99669 
15 1 7.10922 3.7035 3.72686 
28 1 10.0927 0.66889 0.672149 
29 1 8.58113 2.19446 2.19526 
30 1 9.2885 1.48366 1.4851 
1 1 6.20227 4.59652 6.18584 
2 1 7.69079 3.07467 7.69337 
3 1 6.99072 3.79267 6.98585 
40 1 10.0356 0.736899 10.0377 
41 1 8.49807 2.26877 8.49785 
42 1 9.2065 1.56284 9.20727 
7 1 6.17509 6.19489 4.61378 
8 1 7.68603 7.68088 3.08253 
9 1 6.97448 6.98628 3.80113 
43 1 10.0372 10.039 0.737923 
44 1 8.49651 8.49659 2.27095 
45 1 9.20432 9.20535 1.56626 
22 1 6.25257 6.24656 6.22848 
23 1 7.7767 7.77762 7.78011 
24 1 7.07194 7.0727 7.06683 
34 1 10.1014 10.1012 10.1023 
35 1 8.58679 8.58693 8.58646 
36 1 9.2947 9.29492 9.29473 
ITEM: TIMESTEP
20
ITEM: NUMBER OF ATOMS
49
ITEM: BOX BOUNDS pp pp pp
0.0000000000000000e+00 1.1000000000000000e+01
0.0000000000000000e+00 1.1002000000000001e+01
0.0000000000000000e+00 1.1000000000000000e+01
ITEM: ATOMS id type x y z 
10 1 4.67506 4.67982 4.64523 
11 1 2.96566 2.97844 3.11531 
12 1 3.85988 3.85097 3.59582 
46 1 0.730734 0.726673 0.733288 
47 1 2.25676 2.25745 2.27016 
48 1 1.5441 1.54201 1.54733 
49 2 4.72147 4.65959 2.86577 
19 1 4.5409 4.54688 6.25649 
20 1 3.00046 3.00236 7.76812 
21 1 3.71537 3.71142 7.08397 
31 1 0.669403 0.670721 10.0845 
32 1 2.18643 2.18532 8.59343 
33 1 1.47226 1.47393 9.287 
16 1 4.55029 6.36111 4.63597 
17 1 2.99364 7.77086 2.98856 
18 1 3.71249 7.12137 3.74536 
25 1 0.665609 10.0778 0.678743 
26 1 2.18769 8.58847 2.18541 
27 1 1.47305 9.28899 1.47724 
4 1 4.6043 6.16847 6.23245 
5 1 3.06654 7.70531 7.6961 
6 1 3.78701 6.98473 7.01426 
37 1 0.739031 10.0312 10.0374 
38 1 2.26232 8.50605 8.50282 
39 1 1.55926 9.21007 9.21484 
13 1 6.38565 4.55405 4.65315 
14 1 7.7722 2.99974 2.99685 
15 1 7.1439 3.70781 3.77233 
28 1 10.0764 0.663266 0.673718 
29 1 8.58764 2.18432 2.18384 
30 1 9.29328 1.4724 1.47677 
1 1 6.17095 4.60162 6.22506 
2 1 7.69992 3.07442 7.70205 
3 1 6.9884 3.77965 6.99097 
40 1 10.0299 0.737574 10.0342 
41 1 8.50187 2.26549 8.50217 
42 1 9.2079 1.55932 9.21003 
7 1 6.17372 6.18582 4.61746 
8 1 7.68329 7.68875 3.0817 
9 1 6.98427 6.97877 3.79712 
43 1 10.0305 10.0288 0.746023 
44 1 8.49267 8.4944 2.27203 
45 1 9.20389 9.20135 1.57076 
22 1 6.26634 6.26111 6.25727 
23 1 7.78398 7.78817 7.78801 
24 1 7.08544 7.07758 7.07432 
34 1 10.0901 10.0947 10.102 
35 1 8.59081 8.59138 8.59063 
36 1 9.29824 9.29953 9.30192 
ITEM: TIMESTEP
30
ITEM: NUMBER OF ATOMS
49
ITEM: BOX BOUNDS pp pp pp
0.0000000000000000e+00 1.1000000000000000e+01
0.0000000000000000e+00 1.1002000000000001e+01
0.0000000000000000e+00 1.1000000000000000e+01
ITEM: ATOMS id type x y z 
10 1 4.70266 4.68776 4.59856 
11 1 2.93196 2.94418 3.18666 
12 1 3.86906 3.85998 3.51846 
46 1 0.733129 0.731219 0.726978 
47 1 2.23799 2.24002 2.27802 
48 1 1.53139 1.53407 1.55228 
49 2 4.72403 4.67701 2.82902 
19 1 4.53047 4.54266 6.2285 
20 1 3.00853 3.00534 7.7752 
21 1 3.708 3.71418 7.0617 
31 1 0.669309 0.669619 10.067 
32 1 2.18475 2.18708 8.57643 
33 1 1.49199 1.48695 9.29668 
16 1 4.55944 6.36876 4.64099 
17 1 3.00418 7.76927 2.99581 
18 1 3.71676 7.12144 3.76255 
25 1 0.663059 10.0705 0.679068 
26 1 2.19311 8.57654 2.18983 
27 1 1.47929 9.28255 1.48307 
4 1 4.60835 6.16465 6.24744 
5 1 3.07314 7.69187 7.69928 
6 1 3.79321 6.99003 7.00083 
37 1 0.732543 10.0342 10.0438 
38 1 2.26575 8.50346 8.50483 
39 1 1.55455 9.21334 9.20554 
13 1 6.38511 4.56465 4.63986 
14 1 7.78513 2.99586 3.00723 
15 1 7.14597 3.71794 3.76629 
28 1 10.0783 0.665283 0.681511 
29 1 8.5836 2.19636 2.19429 
30 1 9.26453 1.47083 1.47735 
1 1 6.16579 4.60404 6.23726 
2 1 7.70205 3.06203 7.69112 
3 1 6.98184 3.79834 7.02465 
40 1 10.0321 0.732326 10.0387 
41 1 8.50429 2.26467 8.50311 
42 1 9.2108 1.55606 9.21289 
7 1 6.19879 6.19043 4.62401 
8 1 7.68254 7.67525 3.08509 
9 1 6.96857 6.98745 3.80835 
43 1 10.0285 10.0282 0.7481 
44 1 8.49146 8.48946 2.27943 
45 1 9.1927 9.19838 1.5679 
22 1 6.25711 6.26495 6.26557 
23 1 7.7932 7.78756 7.78575 
24 1 7.07711 7.08653 7.0836 
34 1 10.0941 10.0943 10.1088 
35 1 8.59174 8.59345 8.59193 
36 1 9.29906 9.29893 9.3046 
ITEM: TIMESTEP
40
ITEM: NUMBER OF ATOMS
49
ITEM: BOX BOUNDS pp pp pp
0.0000000000000000e+00 1.1000000000000000e+01
0.0000000000000000e+00 1.1002000000000001e+01
0.0000000000000000e+00 1.1000000000000000e+01
ITEM: ATOMS id type x y z 
10 1 4.70199 4.6887 4.56864 
11 1 2.93071 2.94189 3.20203 
12 1 3.86806 3.85936 3.50235 
46 1 0.727404 0.72496 0.720903 
47 1 2.23279 2.23653 2.29965 
48 1 1.53297 1.53564 1.55797 
49 2 4.7207 4.67663 2.81488 
19 1 4.53255 4.53432 6.20575 
20 1 3.01103 3.01226 7.76959 
21 1 3.71338 3.71297 7.05278 
31 1 0.674611 0.67351 10.0767 
32 1 2.1953 2.19496 8.57933 
33 1 1.4845 1.48304 9.28114 
16 1 4.56131 6.36039 4.63922 
17 1 3.0054 7.76965 3.00367 
18 1 3.72227 7.12487 3.75914 
25 1 0.664609 10.073 0.683851 
26 1 2.19559 8.57772 2.18945 
27 1 1.47432 9.27378 1.48313 
4 1 4.6049 6.16237 6.23958 
5 1 3.07146 7.70101 7.69848 
6 1 3.7902 6.97949 7.01531 
37 1 0.736745 10.0334 10.0398 
38 1 2.26264 8.50483 8.50145 
39 1 1.55743 9.21091 9.21151 
13 1 6.38083 4.56573 4.64915 
14 1 7.78574 3.00385 3.01657 
15 1 7.13946 3.72221 3.76847 
28 1 10.071 0.660983 0.68099 
29 1 8.57879 2.18918 2.18778 
30 1 9.27795 1.47192 1.48012 
1 1 6.1591 4.60681 6.24368 
2 1 7.69881 3.0707 7.69624 
3 1 6.97763 3.78995 7.01496 
40 1 10.0319 0.735859 10.0416 
41 1 8.50463 2.26341 8.50374 
42 1 9.21147 1.55585 9.21017 
7 1 6.18976 6.19327 4.63119 
8 1 7.68099 7.68293 3.08105 
9 1 6.98243 6.98453 3.80758 
43 1 10.0272 10.0291 0.75117 
44 1 8.48927 8.48955 2.2748 
45 1 9.1979 9.19903 1.57237 
22 1 6.25929 6.26248 6.27866 
23 1 7.79427 7.79374 7.78858 
24 1 7.0828 7.08322 7.08571 
34 1 10.0948 10.0929 10.1112 
35 1 8.59761 8.59513 8.59097 
36 1 9.29457 9.3015 9.31302 
ITEM: TIMESTEP
50
ITEM: NUMBER OF ATOMS
49
ITEM: BOX BOUNDS pp pp pp
0.0000000000000000e+00 1.1000000000000000e+01
0.0000000000000000e+00 1.1002000000000001e+01
0.0000000000000000e+00 1.1000000000000000e+01
ITEM: ATOMS id type x y z 
10 1 4.7047 4.69017 4.54869 
11 1 2.92597 2.93675 3.21214 
12 1 3.86597 3.85727 3.48882 
46 1 0.728671 0.725813 0.721312 
47 1 2.22424 2.22959 2.31557 
48 1 1.53072 1.53225 1.56066 
49 2 4.72047 4.67718 2.80229 
19 1 4.5302 4.53142 6.19276 
20 1 3.01466 3.01517 7.76751 
21 1 3.71284 3.71342 7.04266 
31 1 0.676947 0.675078 10.0742 
32 1 2.19732 2.19661 8.57747 
33 1 1.48632 1.48587 9.27929 
16 1 4.56454 6.36011 4.6393 
17 1 3.00775 7.77366 3.00796 
18 1 3.72343 7.12239 3.75859 
25 1 0.664712 10.0726 0.683056 
26 1 2.19269 8.57394 2.18894 
27 1 1.47789 9.27726 1.48265 
4 1 4.6028 6.15742 6.24074 
5 1 3.07303 7.69961 7.69815 
6 1 3.79002 6.97561 7.01739 
37 1 0.737413 10.0355 10.0428 
38 1 2.26173 8.50566 8.50128 
39 1 1.55738 9.21176 9.21235 
13 1 6.37789 4.56807 4.64786 
14 1 7.78806 3.00502 3.01904 
15 1 7.14011 3.72477 3.76968 
28 1 10.0726 0.662582 0.68048 
29 1 8.57565 2.18953 2.18877 
30 1 9.27741 1.4739 1.48215 
1 1 6.15539 4.60542 6.24535 
2 1 7.69875 3.07145 7.69727 
3 1 6.97369 3.7893 7.01798 
40 1 10.0348 0.735806 10.0413 
41 1 8.5055 2.26205 8.50144 
42 1 9.21083 1.55762 9.2132 
7 1 6.19432 6.19619 4.63856 
8 1 7.67905 7.68112 3.08158 
9 1 6.98247 6.98438 3.81165 
43 1 10.029 10.0291 0.75396 
44 1 8.48803 8.48884 2.27419 
45 1 9.19853 9.19903 1.57342 
22 1 6.25563 6.26018 6.28468 
23 1 7.79604 7.79499 7.78802 
24 1 7.08213 7.08356 7.08922 
34 1 10.0946 10.0957 10.1148 
35 1 8.59601 8.59704 8.59523 
36 1 9.30212 9.30221 9.30948 
ITEM: TIMESTEP
60
ITEM: NUMBER OF ATOMS
49
ITEM: BOX BOUNDS pp pp pp
0.0000000000000000e+00 1.1000000000000000e+01
0.0000000000000000e+00 1.1002000000000001e+01
0.0000000000000000e+00 1.1000000000000000e+01
ITEM: ATOMS id type x y z 
10 1 4.71291 4.69782 4.48922 
11 1 2.91374 2.92409 3.24079 
12 1 3.85923 3.85038 3.44901 
46 1 0.73109 0.729265 0.717703 
47 1 2.19698 2.20363 2.36553 
48 1 1.52338 1.52611 1.57751 
49 2 4.71621 4.67595 2.76742 
19 1 4.52246 4.52208 6.15439 
20 1 3.02164 3.02215 7.75695 
21 1 3.71192 3.7118 7.01801 
31 1 0.683798 0.681792 10.0677 
32 1 2.20537 2.20477 8.56906 
33 1 1.49537 1.49547 9.27371 
16 1 4.57266 6.35574 4.6338 
17 1 3.01129 7.78059 3.01658 
18 1 3.72978 7.12709 3.76275 
25 1 0.6693 10.0765 0.683757 
26 1 2.19461 8.56974 2.18743 
27 1 1.47502 9.2728 1.486 
4 1 4.5964 6.13917 6.24065 
5 1 3.07533 7.6956 7.70196 
6 1 3.7865 6.965 7.02116 
37 1 0.743209 10.0405 10.0464 
38 1 2.26176 8.50668 8.49925 
39 1 1.55907 9.21299 9.21165 
13 1 6.37369 4.57575 4.64362 
14 1 7.79541 3.01087 3.02676 
15 1 7.14232 3.72922 3.77402 
28 1 10.0755 0.664904 0.682555 
29 1 8.57098 2.18875 2.19001 
30 1 9.27596 1.47596 1.48424 
1 1 6.13851 4.59971 6.24705 
2 1 7.69468 3.07351 7.70166 
3 1 6.9645 3.78748 7.0246 
40 1 10.0402 0.740957 10.046 
41 1 8.50643 2.26105 8.49975 
42 1 9.21374 1.55829 9.21274 
7 1 6.20462 6.20465 4.66455 
8 1 7.67668 7.67908 3.08144 
9 1 6.98585 6.98757 3.82096 
43 1 10.0334 10.0334 0.761407 
44 1 8.48588 8.48689 2.27113 
45 1 9.19981 9.20055 1.57501 
22 1 6.2445 6.25179 6.30709 
23 1 7.80015 7.79985 7.78925 
24 1 7.0809 7.08327 7.09947 
34 1 10.1021 10.1015 10.1204 
35 1 8.60326 8.60166 8.59616 
36 1 9.30299 9.30562 9.31769 
ITEM: TIMESTEP
70
ITEM: NUMBER OF ATOMS
49
ITEM: BOX BOUNDS pp pp pp
0.0000000000000000e+00 1.1000000000000000e+01
0.0000000000000000e+00 1.1002000000000001e+01
0.0000000000000000e+00 1.1000000000000000e+01
ITEM: ATOMS id type x y z 
10 1 4.71568 4.70084 4.47705 
11 1 2.91142 2.92181 3.24552 
12 1 3.85784 3.84898 3.44324 
46 1 0.732556 0.730439 0.715818 
47 1 2.1904 2.19704 2.37705 
48 1 1.52076 1.5238 1.58343 
49 2 4.71504 4.67526 2.76174 
19 1 4.52039 4.51928 6.14802 
20 1 3.02168 3.02206 7.75288 
21 1 3.71258 3.71239 7.01346 
31 1 0.685601 0.683502 10.0688 
32 1 2.20702 2.20716 8.57034 
33 1 1.49533 1.49433 9.26949 
16 1 4.57493 6.35649 4.63377 
17 1 3.01253 7.78285 3.01916 
18 1 3.73124 7.12706 3.762 
25 1 0.668596 10.0758 0.684325 
26 1 2.1925 8.56839 2.18872 
27 1 1.47883 9.27417 1.48424 
4 1 4.59374 6.13673 6.23995 
5 1 3.07613 7.69165 7.70339 
6 1 3.78636 6.96491 7.01861 
37 1 0.742881 10.0422 10.0459 
38 1 2.2605 8.50643 8.49949 
39 1 1.56079 9.21519 9.21219 
13 1 6.37369 4.57707 4.64411 
14 1 7.79701 3.01155 3.02929 
15 1 7.14332 3.73148 3.77316 
28 1 10.0758 0.666395 0.682861 
29 1 8.57109 2.18945 2.19061 
30 1 9.27482 1.4752 1.48471 
1 1 6.13664 4.59818 6.24656 
2 1 7.69133 3.07457 7.70358 
3 1 6.96357 3.78699 7.02225 
40 1 10.0422 0.74098 10.0448 
41 1 8.50666 2.25983 8.49989 
42 1 9.2147 1.56002 9.21283 
7 1 6.20698 6.2072 4.66964 
8 1 7.67626 7.67874 3.08136 
9 1 6.98736 6.98903 3.82459 
43 1 10.0348 10.0345 0.761792 
44 1 8.48585 8.48705 2.27067 
45 1 9.19898 9.19945 1.57494 
22 1 6.24271 6.24942 6.311 
23 1 7.80061 7.80008 7.78782 
24 1 7.07893 7.08197 7.10377 
34 1 10.1019 10.1022 10.123 
35 1 8.60299 8.60289 8.59892 
36 1 9.30738 9.30705 9.3152 
ITEM: TIMESTEP
80
ITEM: NUMBER OF ATOMS
49
ITEM: BOX BOUNDS pp pp pp
0.0000000000000000e+00 1.1000000000000000e+01
0.0000000000000000e+00 1.1002000000000001e+01
0.0000000000000000e+00 1.1000000000000000e+01
ITEM: ATOMS id type x y z 
10 1 4.71803 4.70323 4.46619 
11 1 2.90939 2.91974 3.25017 
12 1 3.85635 3.84751 3.43806 
46 1 0.733365 0.731329 0.714869 
47 1 2.1839 2.1907 2.38911 
48 1 1.51764 1.52081 1.58921 
49 2 4.71399 4.67465 2.75652 
19 1 4.51916 4.51784 6.14168 
20 1 3.02212 3.02255 7.74905 
21 1 3.71226 3.71193 7.00823 
31 1 0.686786 0.684687 10.0676 
32 1 2.20843 2.20859 8.56875 
33 1 1.49725 1.49612 9.26888 
16 1 4.57716 6.35685 4.63235 
17 1 3.01305 7.78501 3.02057 
18 1 3.7327 7.12826 3.76232 
25 1 0.669365 10.0761 0.683921 
26 1 2.19225 8.56802 2.18891 
27 1 1.47913 9.27427 1.48425 
4 1 4.59194 6.13383 6.23854 
5 1 3.07629 7.68997 7.70424 
6 1 3.78506 6.9623 7.01908 
37 1 0.743951 10.0438 10.0454 
38 1 2.26081 8.50652 8.49925 
39 1 1.56127 9.21524 9.21224 
13 1 6.37412 4.5789 4.64295 
14 1 7.79928 3.01218 3.03109 
15 1 7.14371 3.73299 3.77279 
28 1 10.076 0.666843 0.682577 
29 1 8.57081 2.18912 2.19112 
30 1 9.27537 1.47592 1.48487 
1 1 6.13377 4.59655 6.24567 
2 1 7.68924 3.07458 7.70495 
3 1 6.96192 3.78645 7.02264 
40 1 10.0438 0.742087 10.0447 
41 1 8.50655 2.26013 8.49997 
42 1 9.21523 1.55999 9.21221 
7 1 6.2096 6.20983 4.67534 
8 1 7.67601 7.67863 3.0814 
9 1 6.98906 6.99049 3.828 
43 1 10.0357 10.0352 0.762245 
44 1 8.48551 8.48679 2.26937 
45 1 9.19936 9.19982 1.57568 
22 1 6.24036 6.24723 6.3158 
23 1 7.8007 7.8004 7.78799 
24 1 7.07822 7.08123 7.10657 
34 1 10.1032 10.1031 10.124 
35 1 8.60397 8.60353 8.59932 
36 1 9.30804 9.30814 9.31532 
ITEM: TIMESTEP
90
ITEM: NUMBER OF ATOMS
49
ITEM: BOX BOUNDS pp pp pp
0.0000000000000000e+00 1.1000000000000000e+01
0.0000000000000000e+00 1.1002000000000001e+01
0.0000000000000000e+00 1.1000000000000000e+01
ITEM: ATOMS id type x y z 
10 1 4.72132 4.70658 4.45247 
11 1 2.90684 2.91699 3.25595 
12 1 3.85424 3.84542 3.43171 
46 1 0.734393 0.732296 0.713956 
47 1 2.17458 2.18189 2.40554 
48 1 1.51363 1.51683 1.59826 
49 2 4.71239 4.67364 2.75001 
19 1 4.51744 4.51617 6.13317 
20 1 3.02222 3.0231 7.74379 
21 1 3.71235 3.71089 7.00066 
31 1 0.689119 0.68637 10.0663 
32 1 2.21039 2.21066 8.56715 
33 1 1.4994 1.49817 9.26695 
16 1 4.5804 6.35751 4.63036 
17 1 3.01378 7.78751 3.02257 
18 1 3.73515 7.13033 3.76265 
25 1 0.669771 10.0766 0.682413 
26 1 2.192 8.56764 2.18888 
27 1 1.47945 9.27487 1.485 
4 1 4.58828 6.12965 6.23625 
5 1 3.07564 7.68669 7.70499 
6 1 3.78488 6.95987 7.01993 
37 1 0.74491 10.0454 10.0451 
38 1 2.26094 8.50603 8.4994 
39 1 1.56205 9.21679 9.21218 
13 1 6.37421 4.58215 4.64076 
14 1 7.80153 3.01318 3.03272 
15 1 7.14586 3.73489 3.77368 
28 1 10.0766 0.667599 0.682195 
29 1 8.5714 2.18937 2.19179 
30 1 9.27509 1.47555 1.48515 
1 1 6.13087 4.59443 6.24367 
2 1 7.68735 3.07517 7.70646 
3 1 6.95749 3.78424 7.0237 
40 1 10.0454 0.74292 10.0441 
41 1 8.50611 2.25996 8.49987 
42 1 9.21618 1.56134 9.21185 
7 1 6.21367 6.21349 4.68336 
8 1 7.67669 7.67906 3.08298 
9 1 6.99006 6.99194 3.83029 
43 1 10.0371 10.0365 0.762796 
44 1 8.48531 8.48672 2.26818 
45 1 9.19979 9.20027 1.57507 
22 1 6.23727 6.24444 6.32202 
23 1 7.8007 7.80075 7.78862 
24 1 7.07758 7.08028 7.11053 
34 1 10.1051 10.1045 10.1252 
35 1 8.60491 8.60478 8.5993 
36 1 9.30915 9.30868 9.31603 
ITEM: TIMESTEP
100
ITEM: NUMBER OF ATOMS
49
ITEM: BOX BOUNDS pp pp pp
0.0000000000000000e+00 1.1000000000000000e+01
0.0000000000000000e+00 1.1002000000000001e+01
0.0000000000000000e+00 1.1000000000000000e+01
ITEM: ATOMS id type x y z 
10 1 4.72282 4.70803 4.44604 
11 1 2.90567 2.91573 3.2587 
12 1 3.85328 3.84446 3.42899 
46 1 0.734674 0.732746 0.713515 
47 1 2.16996 2.1775 2.41333 
48 1 1.51109 1.51432 1.60251 
49 2 4.71155 4.67306 2.74705 
19 1 4.51686 4.5152 6.12919 
20 1 3.02252 3.02305 7.7412 
21 1 3.71154 3.71062 6.9971 
31 1 0.68984 0.687419 10.0658 
32 1 2.21132 2.21134 8.5657 
33 1 1.50039 1.49963 9.26716 
16 1 4.58235 6.35842 4.62963 
17 1 3.01465 7.7891 3.02349 
18 1 3.73533 7.13096 3.76266 
25 1 0.669572 10.0769 0.683191 
26 1 2.19079 8.56749 2.18986 
27 1 1.48136 9.27556 1.48325 
4 1 4.58767 6.12845 6.23538 
5 1 3.07596 7.68559 7.70565 
6 1 3.7833 6.95769 7.01981 
37 1 0.745585 10.0465 10.0445 
38 1 2.26098 8.50617 8.49916 
39 1 1.56312 9.21611 9.21218 
13 1 6.37489 4.58359 4.64016 
14 1 7.80303 3.01364 3.03382 
15 1 7.14637 3.73593 3.77333 
28 1 10.0769 0.667708 0.681762 
29 1 8.57141 2.18863 2.19219 
30 1 9.27588 1.4767 1.48494 
1 1 6.12856 4.59268 6.2431 
2 1 7.68469 3.07439 7.70741 
3 1 6.95812 3.78524 7.02339 
40 1 10.0464 0.74337 10.044 
41 1 8.50598 2.25986 8.49994 
42 1 9.21683 1.56171 9.212 
7 1 6.2152 6.21496 4.68644 
8 1 7.67664 7.67911 3.08273 
9 1 6.99173 6.99344 3.83326 
43 1 10.0377 10.037 0.763162 
44 1 8.48537 8.48666 2.26763 
45 1 9.1996 9.20036 1.57489 
22 1 6.23545 6.24257 6.32554 
23 1 7.80036 7.80036 7.78975 
24 1 7.07713 7.08024 7.11074 
34 1 10.1053 10.1053 10.1252 
35 1 8.60553 8.60541 8.59947 
36 1 9.30973 9.3091 9.31615 
ITEM: TIMESTEP
110
ITEM: NUMBER OF ATOMS
49
ITEM: BOX BOUNDS pp pp pp
0.0000000000000000e+00 1.1000000000000000e+01
0.0000000000000000e+00 1.1002000000000001e+01
0.0000000000000000e+00 1.1000000000000000e+01
ITEM: ATOMS id type x y z 
10 1 4.74353 4.7294 4.36523 
11 1 2.88963 2.89859 3.29239 
12 1 3.83996 3.83107 3.39587 
46 1 0.739836 0.738703 0.71089 
47 1 2.10847 2.11873 2.51842 
48 1 1.47844 1.48282 1.66547 
49 2 4.69969 4.66464 2.70992 
19 1 4.50719 4.50385 6.07455 
20 1 3.02389 3.0238 7.70482 
21 1 3.70568 3.70487 6.94801 
31 1 0.704069 0.700744 10.062 
32 1 2.22341 2.22279 8.55257 
33 1 1.51371 1.51348 9.25752 
16 1 4.60397 6.3627 4.61831 
17 1 3.01757 7.80265 3.03574 
18 1 3.7557 7.15221 3.76391 
25 1 0.675697 10.0842 0.676 
26 1 2.18932 8.56979 2.19261 
27 1 1.48271 9.27695 1.48305 
4 1 4.57311 6.10673 6.222 
5 1 3.0763 7.66678 7.71608 
6 1 3.76606 6.93684 7.01512 
37 1 0.754715 10.0591 10.0418 
38 1 2.2655 8.50348 8.50188 
39 1 1.56642 9.21894 9.20752 
13 1 6.37998 4.60553 4.62776 
14 1 7.82004 3.02002 3.04604 
15 1 7.15891 3.75004 3.77313 
28 1 10.0835 0.672677 0.675813 
29 1 8.57564 2.18798 2.19651 
30 1 9.27931 1.47782 1.48697 
1 1 6.11126 4.5806 6.22965 
2 1 7.66918 3.07671 7.71833 
3 1 6.93256 3.76797 7.02576 
40 1 10.0592 0.750812 10.0409 
41 1 8.50422 2.26151 8.50153 
42 1 9.22036 1.56606 9.21005 
7 1 6.237 6.23664 4.73172 
8 1 7.68059 7.68358 3.09034 
9 1 7.00586 7.00641 3.8569 
43 1 10.0446 10.0443 0.763542 
44 1 8.48504 8.48684 2.25832 
45 1 9.202 9.20331 1.57302 
22 1 6.21582 6.22364 6.36383 
23 1 7.79777 7.79952 7.79866 
24 1 7.06988 7.07438 7.13052 
34 1 10.115 10.1136 10.1282 
35 1 8.61229 8.61139 8.60026 
36 1 9.31636 9.3148 9.31656 
ITEM: TIMESTEP
120
ITEM: NUMBER OF ATOMS
49
ITEM: BOX BOUNDS pp pp pp
0.0000000000000000e+00 1.1000000000000000e+01
0.0000000000000000e+00 1.1002000000000001e+01
0.0000000000000000e+00 1.1000000000000000e+01
ITEM: ATOMS id type x y z 
10 1 4.74374 4.7294 4.3634 
11 1 2.88905 2.89794 3.29209 
12 1 3.83896 3.83005 3.39664 
46 1 0.740412 0.738893 0.711938 
47 1 2.10572 2.11597 2.52372 
48 1 1.47551 1.4802 1.67094 
49 2 4.69814 4.66312 2.70932 
19 1 4.50698 4.50323 6.07158 
20 1 3.02264 3.02283 7.70218 
21 1 3.70541 3.70373 6.94613 
31 1 0.704599 0.70194 10.0633 
32 1 2.22328 2.22326 8.55169 
33 1 1.51462 1.51336 9.25709 
16 1 4.60647 6.3655 4.61679 
17 1 3.01983 7.80508 3.03467 
18 1 3.75385 7.15188 3.76514 
25 1 0.676392 10.0846 0.675873 
26 1 2.18895 8.5708 2.19264 
27 1 1.48179 9.27768 1.4832 
4 1 4.57083 6.10675 6.21999 
5 1 3.07288 7.66409 7.71366 
6 1 3.77131 6.9368 7.01851 
37 1 0.754347 10.0601 10.0401 
38 1 2.26412 8.50298 8.50156 
39 1 1.569 9.21977 9.20978 
13 1 6.38139 4.60679 4.62706 
14 1 7.82116 3.02107 3.04572 
15 1 7.16015 3.75031 3.77389 
28 1 10.0834 0.672425 0.675935 
29 1 8.57617 2.18691 2.1972 
30 1 9.28113 1.47937 1.48626 
1 1 6.10913 4.57825 6.22851 
2 1 7.66481 3.07318 7.7178 
3 1 6.9358 3.77295 7.02585 
40 1 10.0606 0.751371 10.0401 
41 1 8.504 2.26182 8.50213 
42 1 9.2206 1.56634 9.21046 
7 1 6.23841 6.23762 4.7333 
8 1 7.68206 7.68472 3.09111 
9 1 7.00725 7.00841 3.85819 
43 1 10.0451 10.0445 0.762788 
44 1 8.48551 8.48753 2.2587 
45 1 9.20186 9.20281 1.57118 
22 1 6.21588 6.22332 6.36203 
23 1 7.79731 7.79921 7.79682 
24 1 7.06657 7.07095 7.13575 
34 1 10.1154 10.1139 10.1275 
35 1 8.61217 8.6112 8.6001 
36 1 9.31637 9.31509 9.31567 
ITEM: TIMESTEP
130
ITEM: NUMBER OF ATOMS
49
ITEM: BOX BOUNDS pp pp pp
0.0000000000000000e+00 1.1000000000000000e+01
0.0000000000000000e+00 1.1002000000000001e+01
0.0000000000000000e+00 1.1000000000000000e+01
ITEM: ATOMS id type x y z 
10 1 4.74459 4.73039 4.36209 
11 1 2.88857 2.8974 3.29241 
12 1 3.83831 3.82939 3.39727 
46 1 0.74062 0.738975 0.712845 
47 1 2.10329 2.11368 2.52801 
48 1 1.47316 1.47785 1.67527 
49 2 4.69721 4.66226 2.70911 
19 1 4.50644 4.50278 6.0693 
20 1 3.02198 3.02208 7.69995 
21 1 3.70498 3.70327 6.9442 
31 1 0.705251 0.702676 10.0639 
32 1 2.22322 2.2232 8.55096 
33 1 1.51491 1.5137 9.25707 
16 1 4.60782 6.36666 4.61629 
17 1 3.02161 7.80663 3.03461 
18 1 3.75314 7.15167 3.76551 
25 1 0.67641 10.0846 0.675288 
26 1 2.1886 8.57104 2.19279 
27 1 1.48206 9.2788 1.48365 
4 1 4.57085 6.10685 6.21925 
5 1 3.07212 7.66194 7.7143 
6 1 3.77115 6.93723 7.01713 
37 1 0.754936 10.061 10.0398 
38 1 2.26422 8.50239 8.5018 
39 1 1.56958 9.22002 9.20979 
13 1 6.38179 4.60751 4.62668 
14 1 7.82206 3.02179 3.04593 
15 1 7.161 3.75109 3.77398 
28 1 10.0838 0.672849 0.675361 
29 1 8.577 2.18709 2.19753 
30 1 9.28145 1.47917 1.48649 
1 1 6.1087 4.57743 6.22805 
2 1 7.66184 3.07205 7.7188 
3 1 6.9376 3.77377 7.02387 
40 1 10.0615 0.751861 10.0398 
41 1 8.50355 2.26198 8.50261 
42 1 9.22079 1.56675 9.2102 
7 1 6.23901 6.23826 4.73356 
8 1 7.683 7.68573 3.09181 
9 1 7.00855 7.00957 3.85944 
43 1 10.0452 10.0444 0.761705 
44 1 8.48584 8.48794 2.25823 
45 1 9.20234 9.20317 1.57067 
22 1 6.21454 6.22192 6.3637 
23 1 7.79608 7.79796 7.7986 
24 1 7.06637 7.07086 7.13501 
34 1 10.1155 10.1142 10.1268 
35 1 8.61182 8.61103 8.59992 
36 1 9.31664 9.31515 9.31466 
ITEM: TIMESTEP
140
ITEM: NUMBER OF ATOMS
49
ITEM: BOX BOUNDS pp pp pp
0.0000000000000000e+00 1.1000000000000000e+01
0.0000000000000000e+00 1.1002000000000001e+01
0.0000000000000000e+00 1.1000000000000000e+01
ITEM: ATOMS id type x y z 
10 1 4.74525 4.73126 4.36075 
11 1 2.88788 2.89666 3.29323 
12 1 3.83756 3.82862 3.39799 
46 1 0.740806 0.739069 0.714046 
47 1 2.0999 2.11044 2.53384 
48 1 1.47 1.47473 1.68129 
49 2 4.69603 4.66121 2.70891 
19 1 4.5061 4.50261 6.06665 
20 1 3.0214 3.02135 7.69666 
21 1 3.70456 3.70284 6.94116 
31 1 0.706056 0.7035 10.0646 
32 1 2.22337 2.22336 8.54974 
33 1 1.51544 1.51427 9.25668 
16 1 4.60911 6.36807 4.61553 
17 1 3.0231 7.80884 3.03466 
18 1 3.7531 7.15173 3.76528 
25 1 0.676775 10.0849 0.674632 
26 1 2.18848 8.57208 2.19331 
27 1 1.48201 9.27913 1.48352 
4 1 4.57052 6.10648 6.21796 
5 1 3.07123 7.6602 7.71456 
6 1 3.77019 6.936 7.01677 
37 1 0.755812 10.0623 10.0393 
38 1 2.2645 8.50195 8.50223 
39 1 1.56988 9.21993 9.2099 
13 1 6.38243 4.60855 4.6259 
14 1 7.82346 3.0226 3.04606 
15 1 7.16239 3.7519 3.77385 
28 1 10.0841 0.673161 0.674747 
29 1 8.57813 2.18696 2.19827 
30 1 9.28198 1.47961 1.48615 
1 1 6.10864 4.57655 6.22674 
2 1 7.65999 3.07138 7.7192 
3 1 6.93663 3.77311 7.02338 
40 1 10.0628 0.752502 10.0393 
41 1 8.50288 2.26223 8.5029 
42 1 9.22073 1.56715 9.21052 
7 1 6.24022 6.23927 4.73406 
8 1 7.68455 7.68719 3.09307 
9 1 7.00996 7.0111 3.86057 
43 1 10.0454 10.0445 0.760336 
44 1 8.48643 8.4886 2.25797 
45 1 9.20258 9.2033 1.56957 
22 1 6.2138 6.22105 6.36469 
23 1 7.79525 7.79722 7.79952 
24 1 7.06499 7.06946 7.13726 
34 1 10.1163 10.1149 10.1252 
35 1 8.61173 8.61092 8.59946 
36 1 9.31654 9.31525 9.31404 
ITEM: TIMESTEP
150
ITEM: NUMBER OF ATOMS
49
ITEM: BOX BOUNDS pp pp pp
0.0000000000000000e+00 1.1000000000000000e+01
0.0000000000000000e+00 1.1002000000000001e+01
0.0000000000000000e+00 1.1000000000000000e+01
ITEM: ATOMS id type x y z 
10 1 4.74524 4.73128 4.36062 
11 1 2.88782 2.8966 3.29334 
12 1 3.83747 3.82853 3.39805 
46 1 0.740801 0.739056 0.714178 
47 1 2.09966 2.11021 2.5345 
48 1 1.46958 1.47433 1.6817 
49 2 4.69594 4.66114 2.70887 
19 1 4.50607 4.50259 6.06646 
20 1 3.0214 3.02133 7.6963 
21 1 3.70447 3.70275 6.94091 
31 1 0.706235 0.703669 10.0647 
32 1 2.22338 2.22339 8.54966 
33 1 1.51549 1.51429 9.25657 
16 1 4.6092 6.36822 4.61547 
17 1 3.02313 7.80909 3.03463 
18 1 3.75315 7.15179 3.7652 
25 1 0.676737 10.0849 0.674612 
26 1 2.18851 8.57216 2.19336 
27 1 1.48196 9.27919 1.48352 
4 1 4.57052 6.10647 6.2179 
5 1 3.07115 7.66005 7.71451 
6 1 3.77012 6.93584 7.01685 
37 1 0.755855 10.0623 10.0393 
38 1 2.26443 8.50178 8.50237 
39 1 1.57011 9.22011 9.2097 
13 1 6.38254 4.60865 4.62582 
14 1 7.82366 3.02259 3.046 
15 1 7.16252 3.75199 3.77383 
28 1 10.0842 0.673154 0.674708 
29 1 8.57822 2.18702 2.19827 
30 1 9.28207 1.47952 1.48623 
1 1 6.10856 4.57653 6.22669 
2 1 7.65981 3.07127 7.71923 
3 1 6.93659 3.7731 7.02337 
40 1 10.0628 0.752597 10.0393 
41 1 8.50274 2.26218 8.50313 
42 1 9.22084 1.56733 9.21016 
7 1 6.24049 6.23958 4.73441 
8 1 7.68481 7.6875 3.0934 
9 1 7.00987 7.01092 3.86029 
43 1 10.0454 10.0445 0.760081 
44 1 8.48647 8.48861 2.25781 
45 1 9.20275 9.2035 1.56962 
22 1 6.21367 6.22093 6.36481 
23 1 7.79506 7.79707 7.79967 
24 1 7.06493 7.06936 7.13725 
34 1 10.1163 10.1148 10.1252 
35 1 8.61175 8.61088 8.59945 
36 1 9.31649 9.31533 9.31394 
ITEM: TIMESTEP
160
ITEM: NUMBER OF ATOMS
49
ITEM: BOX BOUNDS pp pp pp
0.0000000000000000e+00 1.1000000000000000e+01
0.0000000000000000e+00 1.1002000000000001e+01
0.0000000000000000e+00 1.1000000000000000e+01
ITEM: ATOMS id type x y z 
10 1 4.74525 4.73129 4.3606 
11 1 2.88781 2.89658 3.29336 
12 1 3.83745 3.82851 3.39806 
46 1 0.740803 0.739058 0.714199 
47 1 2.09959 2.11014 2.5346 
48 1 1.46953 1.47428 1.68182 
49 2 4.69592 4.66112 2.70887 
19 1 4.50607 4.50259 6.06641 
20 1 3.02139 3.02132 7.69624 
21 1 3.70446 3.70274 6.94085 
31 1 0.706248 0.703684 10.0647 
32 1 2.22339 2.22339 8.54964 
33 1 1.5155 1.5143 9.25657 
16 1 4.60922 6.36824 4.61546 
17 1 3.02314 7.80913 3.03463 
18 1 3.75316 7.15179 3.76519 
25 1 0.676748 10.0849 0.674593 
26 1 2.18852 8.57218 2.19336 
27 1 1.48196 9.27919 1.48353 
4 1 4.57052 6.10647 6.21788 
5 1 3.07115 7.66003 7.71451 
6 1 3.77009 6.93579 7.01685 
37 1 0.755875 10.0623 10.0393 
38 1 2.26444 8.5018 8.50234 
39 1 1.5701 9.22006 9.20976 
13 1 6.38255 4.60867 4.62581 
14 1 7.82369 3.0226 3.046 
15 1 7.16255 3.75202 3.77383 
28 1 10.0842 0.67317 0.674694 
29 1 8.57825 2.18702 2.19829 
30 1 9.28205 1.4795 1.48622 
1 1 6.10856 4.57652 6.22667 
2 1 7.65979 3.07127 7.71924 
3 1 6.93656 3.77306 7.02336 
40 1 10.0628 0.752603 10.0393 
41 1 8.50273 2.26219 8.50311 
42 1 9.22084 1.56733 9.2102 
7 1 6.24051 6.23962 4.73443 
8 1 7.68484 7.68754 3.09344 
9 1 7.0099 7.01091 3.86028 
43 1 10.0454 10.0445 0.760045 
44 1 8.48648 8.48863 2.25779 
45 1 9.20276 9.20351 1.56962 
22 1 6.21365 6.22091 6.36485 
23 1 7.79503 7.79704 7.79971 
24 1 7.06493 7.06936 7.13725 
34 1 10.1163 10.1149 10.1251 
35 1 8.61177 8.61089 8.59941 
36 1 9.31646 9.3153 9.31399 
ITEM: TIMESTEP
170
ITEM: NUMBER OF ATOMS
49
ITEM: BOX BOUNDS pp pp pp
0.0000000000000000e+00 1.1000000000000000e+01
0.0000000000000000e+00 1.1002000000000001e+01
0.0000000000000000e+00 1.1000000000000000e+01
ITEM: ATOMS id type x y z 
10 1 4.75273 4.74204 4.34272 
11 1 2.87786 2.88614 3.30681 
12 1 3.82765 3.81866 3.40535 
46 1 0.739385 0.737371 0.729186 
47 1 2.05618 2.06818 2.60883 
48 1 1.43017 1.43596 1.75386 
49 2 4.68259 4.65017 2.70671 
19 1 4.50205 4.49971 6.03514 
20 1 3.01334 3.01188 7.65678 
21 1 3.69674 3.69502 6.90234 
31 1 0.718007 0.718468 10.0745 
32 1 2.2231 2.22723 8.53413 
33 1 1.52628 1.51726 9.25034 
16 1 4.62384 6.38131 4.60744 
17 1 3.03526 7.83271 3.03893 
18 1 3.76323 7.15957 3.7567 
25 1 0.67871 10.0883 0.666075 
26 1 2.18816 8.58397 2.19864 
27 1 1.48312 9.28667 1.48396 
4 1 4.56402 6.10634 6.20228 
5 1 3.06037 7.6392 7.71523 
6 1 3.76068 6.91874 7.01619 
37 1 0.766722 10.0781 10.0327 
38 1 2.26698 8.49497 8.50756 
39 1 1.5744 9.21826 9.21073 
13 1 6.39159 4.62426 4.61553 
14 1 7.84135 3.03195 3.04829 
15 1 7.17997 3.76477 3.77184 
28 1 10.0891 0.676012 0.666003 
29 1 8.59252 2.18697 2.20423 
30 1 9.29061 1.4808 1.48572 
1 1 6.10608 4.56981 6.2109 
2 1 7.6386 3.06341 7.72585 
3 1 6.92495 3.76058 7.01681 
40 1 10.0811 0.760721 10.0271 
41 1 8.49858 2.2628 8.50259 
42 1 9.21121 1.57589 9.22317 
7 1 6.25442 6.25289 4.74312 
8 1 7.70322 7.70567 3.11111 
9 1 7.02639 7.02724 3.8754 
43 1 10.0476 10.0462 0.740066 
44 1 8.49529 8.49767 2.25284 
45 1 9.20748 9.20801 1.55684 
22 1 6.20434 6.20671 6.37685 