ITEM: TIMESTEP
0
ITEM: NUMBER OF ATOMS
146
ITEM: BOX BOUNDS pp pp pp
0.0000000000000000e+00 2.1884000000000000e+01
0.0000000000000000e+00 2.1885999999999999e+01
0.0000000000000000e+00 2.1885000000000002e+01
ITEM: ATOMS id type x y z 
16 1 1.605 12.547 12.547 
32 1 0.024 10.965 10.965 
64 1 4.318 12.218 12.218 
68 1 1.276 15.26 12.218 
78 1 1.276 12.218 15.26 
112 1 3.118 12.317 12.317 
116 1 1.375 14.061 12.317 
126 1 1.375 12.317 14.061 
144 1 0.722 11.664 11.663 
9 1 8.524 12.547 12.547 
25 1 10.105 10.965 10.965 
57 1 5.811 12.218 12.218 
65 1 8.853 15.26 12.218 
73 1 8.853 12.219 15.26 
105 1 7.01 12.317 12.317 
113 1 8.754 14.061 12.317 
121 1 8.754 12.317 14.061 
137 1 9.407 11.664 11.664 
11 1 1.605 19.466 12.547 
27 1 0.023 21.047 10.964 
59 1 4.318 19.795 12.218 
69 1 1.276 16.754 12.218 
79 1 1.276 19.795 15.26 
107 1 3.119 19.696 12.317 
117 1 1.375 17.953 12.317 
127 1 1.375 19.696 14.061 
139 1 0.721 20.349 11.663 
14 1 8.524 19.467 12.547 
30 1 10.106 21.049 10.966 
62 1 5.811 19.795 12.218 
72 1 8.853 16.753 12.218 
76 1 8.853 19.796 15.26 
110 1 7.01 19.696 12.317 
120 1 8.754 17.953 12.317 
124 1 8.754 19.697 14.061 
142 1 9.407 20.35 11.664 
13 1 1.605 12.547 19.466 
29 1 0.023 10.966 21.048 
61 1 4.318 12.218 19.795 
71 1 1.276 15.26 19.795 
75 1 1.276 12.218 16.754 
109 1 3.119 12.317 19.696 
119 1 1.375 14.061 19.696 
123 1 1.375 12.317 17.953 
141 1 0.721 11.664 20.35 
12 1 8.524 12.547 19.466 
28 1 10.106 10.965 21.047 
60 1 5.811 12.219 19.795 
70 1 8.853 15.26 19.796 
80 1 8.853 12.219 16.754 
108 1 7.011 12.317 19.696 
118 1 8.754 14.061 19.696 
128 1 8.754 12.318 17.953 
140 1 9.408 11.664 20.349 
10 1 1.604 19.466 19.466 
26 1 0.023 21.047 21.049 
58 1 4.317 19.796 19.795 
66 1 1.276 16.754 19.795 
74 1 1.276 19.795 16.753 
106 1 3.118 19.696 19.696 
114 1 1.375 17.953 19.696 
122 1 1.375 19.696 17.952 
138 1 0.721 20.349 20.35 
15 1 8.524 19.467 19.466 
31 1 10.106 21.048 21.049 
63 1 5.811 19.796 19.795 
67 1 8.853 16.754 19.795 
77 1 8.853 19.796 16.753 
111 1 7.01 19.697 19.696 
115 1 8.754 17.953 19.696 
125 1 8.754 19.697 17.952 
143 1 9.407 20.35 20.35 
8 1 12.547 1.604 1.605 
24 1 10.965 0.023 0.022 
40 1 15.26 1.275 1.276 
44 1 12.218 4.317 1.276 
54 1 12.218 1.275 4.318 
88 1 14.061 1.374 1.375 
92 1 12.317 3.118 1.375 
102 1 12.317 1.374 3.119 
136 1 11.664 0.721 0.721 
1 1 19.466 1.604 1.604 
17 1 21.048 0.023 0.022 
33 1 16.753 1.275 1.276 
41 1 19.795 4.317 1.276 
49 1 19.795 1.275 4.317 
81 1 17.952 1.374 1.375 
89 1 19.696 3.118 1.375 
97 1 19.696 1.374 3.118 
129 1 20.35 0.722 0.721 
3 1 12.546 8.524 1.604 
19 1 10.965 10.106 0.024 
35 1 15.26 8.852 1.276 
45 1 12.218 5.811 1.275 
55 1 12.218 8.852 4.317 
83 1 14.06 8.753 1.375 
93 1 12.317 7.01 1.374 
103 1 12.317 8.753 3.118 
131 1 11.663 9.407 0.722 
6 1 19.466 8.524 1.605 
22 1 21.048 10.105 0.023 
38 1 16.753 8.852 1.276 
48 1 19.795 5.811 1.276 
52 1 19.795 8.853 4.318 
86 1 17.952 8.754 1.375 
96 1 19.696 7.01 1.375 
100 1 19.696 8.754 3.118 
134 1 20.35 9.407 0.721 
5 1 12.547 1.604 8.524 
21 1 10.965 0.022 10.105 
37 1 15.26 1.275 8.853 
47 1 12.218 4.317 8.853 
51 1 12.218 1.276 5.811 
85 1 14.06 1.374 8.754 
95 1 12.317 3.118 8.754 
99 1 12.317 1.375 7.01 
133 1 11.663 0.72 9.407 
4 1 19.466 1.605 8.524 
20 1 21.048 0.024 10.107 
36 1 16.753 1.275 8.853 
46 1 19.795 4.317 8.853 
56 1 19.795 1.275 5.811 
84 1 17.952 1.374 8.754 
94 1 19.695 3.118 8.754 
104 1 19.696 1.374 7.01 
132 1 20.35 0.722 9.408 
2 1 12.547 8.524 8.524 
18 1 10.965 10.106 10.106 
34 1 15.26 8.853 8.853 
42 1 12.218 5.811 8.853 
50 1 12.218 8.852 5.811 
82 1 14.061 8.754 8.754 
90 1 12.317 7.01 8.754 
98 1 12.317 8.754 7.01 
130 1 11.664 9.407 9.407 
7 1 19.466 8.524 8.524 
23 1 21.047 10.106 10.106 
39 1 16.753 8.853 8.853 
43 1 19.795 5.811 8.853 
53 1 19.795 8.853 5.811 
87 1 17.952 8.754 8.754 
91 1 19.696 7.01 8.754 
101 1 19.696 8.754 7.01 
135 1 20.349 9.407 9.407 
145 2 21.721 1.055 21.352 
146 3 21.721 2.031 21.352 
ITEM: TIMESTEP
10
ITEM: NUMBER OF ATOMS
146
ITEM: BOX BOUNDS pp pp pp
0.0000000000000000e+00 2.1884000000000000e+01
0.0000000000000000e+00 2.1885999999999999e+01
0.0000000000000000e+00 2.1885000000000002e+01
ITEM: ATOMS id type x y z 
16 1 1.60487 12.5469 12.5471 
32 1 0.0235641 10.9651 10.9647 
64 1 4.31638 12.2186 12.2187 
68 1 1.27656 15.2599 12.2186 
78 1 1.27661 12.2186 15.2598 
112 1 3.11923 12.3174 12.3173 
116 1 1.37542 14.0609 12.3173 
126 1 1.37544 12.3175 14.0608 
144 1 0.721958 11.6636 11.6639 
9 1 8.52376 12.547 12.547 
25 1 10.1053 10.9652 10.965 
57 1 5.81065 12.2185 12.2185 
65 1 8.85246 15.2605 12.2185 
73 1 8.85241 12.2192 15.26 
105 1 7.01126 12.3176 12.3175 
113 1 8.75357 14.0599 12.3175 
121 1 8.75368 12.3178 14.0607 
137 1 9.40677 11.6636 11.6635 
11 1 1.60484 19.4663 12.5462 
27 1 0.0229799 21.0479 10.9645 
59 1 4.31767 19.7945 12.2185 
69 1 1.2765 16.7533 12.2185 
79 1 1.27621 19.7948 15.2568 
107 1 3.11863 19.6957 12.3173 
117 1 1.37523 17.9524 12.3173 
127 1 1.37549 19.6955 14.0575 
139 1 0.721525 20.3497 11.6629 
14 1 8.52427 19.4663 12.5471 
30 1 10.1047 21.0479 10.9665 
62 1 5.8111 19.7945 12.2185 
72 1 8.85233 16.7547 12.2187 
76 1 8.85243 19.7955 15.2598 
110 1 7.0104 19.6958 12.3173 
120 1 8.75371 17.952 12.3173 
124 1 8.75361 19.6965 14.0607 
142 1 9.40806 20.3507 11.6638 
13 1 1.605 12.5468 19.4664 
29 1 0.0229337 10.9656 21.0482 
61 1 4.31844 12.2187 19.7945 
71 1 1.27624 15.257 19.7948 
75 1 1.27653 12.2185 16.7533 
109 1 3.11782 12.3174 19.6957 
119 1 1.37565 14.0578 19.6955 
123 1 1.3753 12.3173 17.9525 
141 1 0.721498 11.6641 20.3498 
12 1 8.5242 12.5473 19.4666 
28 1 10.1059 10.9654 21.0475 
60 1 5.81271 12.2191 19.7943 
70 1 8.85242 15.2603 19.7949 
80 1 8.85248 12.2196 16.7536 
108 1 7.00992 12.3178 19.6958 
118 1 8.7537 14.0616 19.6962 
128 1 8.75379 12.3181 17.9523 
140 1 9.40746 11.6635 20.3496 
10 1 1.62984 19.4435 19.4408 
26 1 0.037353 20.9926 21.0381 
58 1 4.32253 19.7968 19.7963 
66 1 1.27478 16.7486 19.7963 
74 1 1.27471 19.7963 16.748 
106 1 3.12453 19.6956 19.6949 
114 1 1.37599 17.9467 19.6947 
122 1 1.37582 19.6953 17.9463 
138 1 0.732825 20.3208 20.339 
15 1 8.52424 19.4668 19.4664 
31 1 10.1055 21.0482 21.0484 
63 1 5.81383 19.7958 19.7947 
67 1 8.85238 16.7539 19.7946 
77 1 8.85244 19.7954 16.7534 
111 1 7.01314 19.6964 19.6954 
115 1 8.75353 17.953 19.6956 
125 1 8.75363 19.6967 17.9523 
143 1 9.40766 20.3498 20.35 
8 1 12.5462 1.60425 1.60464 
24 1 10.9652 0.0224411 0.0221739 
40 1 15.2553 1.27509 1.27605 
44 1 12.2186 4.31727 1.27634 
54 1 12.2185 1.27572 4.31796 
88 1 14.0561 1.37459 1.37559 
92 1 12.3173 3.11827 1.3754 
102 1 12.3173 1.37423 3.11877 
136 1 11.6629 0.720898 0.720731 
1 1 19.4856 1.57455 1.58598 
17 1 21.0574 0.153283 0.0144766 
33 1 16.7459 1.27571 1.2763 
41 1 19.7945 4.32215 1.27632 
49 1 19.7947 1.27551 4.32559 
81 1 17.9478 1.36902 1.37127 
89 1 19.701 3.12091 1.37036 
97 1 19.7004 1.36875 3.12358 
129 1 20.2742 0.728909 0.788714 
3 1 12.5469 8.52369 1.6044 
19 1 10.965 10.1059 0.023354 
35 1 15.2578 8.85124 1.27673 
45 1 12.2186 5.81075 1.27572 
55 1 12.2186 8.85135 4.31734 
83 1 14.0609 8.75285 1.37512 
93 1 12.3171 7.00976 1.37434 
103 1 12.3171 8.75281 3.11849 
131 1 11.6634 9.40749 0.721129 
6 1 19.466 8.52465 1.60499 
22 1 21.0482 10.1056 0.0225971 
38 1 16.7523 8.85186 1.27649 
48 1 19.7949 5.81531 1.27608 
52 1 19.7944 8.8524 4.3165 
86 1 17.9531 8.75329 1.3753 
96 1 19.6954 7.0139 1.37557 
100 1 19.6958 8.75381 3.1194 
134 1 20.3497 9.40711 0.721099 
5 1 12.5469 1.60418 8.52433 
21 1 10.9647 0.0216742 10.1055 
37 1 15.2582 1.27563 8.85234 
47 1 12.2186 4.31734 8.8524 
51 1 12.2185 1.27639 5.8113 
85 1 14.061 1.37432 8.75372 
95 1 12.3173 3.11829 8.75371 
99 1 12.3174 1.37516 7.01043 
133 1 11.664 0.721206 9.40611 
4 1 19.4657 1.60439 8.52483 
20 1 21.048 0.023197 10.1065 
36 1 16.7524 1.2754 8.8525 
46 1 19.7941 4.31755 8.85254 
56 1 19.7949 1.27505 5.81585 
84 1 17.9531 1.37463 8.75361 
94 1 19.6954 3.11878 8.75365 
104 1 19.6954 1.37487 7.01501 
132 1 20.3496 0.721218 9.40812 
2 1 12.547 8.52386 8.52432 
18 1 10.9658 10.1054 10.1057 
34 1 15.2596 8.85241 8.85242 
42 1 12.2186 5.81086 8.85237 
50 1 12.2186 8.85173 5.81095 
82 1 14.0607 8.75359 8.75355 
90 1 12.3174 7.01009 8.75353 
98 1 12.3173 8.75325 7.0102 
130 1 11.6632 9.40745 9.40734 
7 1 19.466 8.52391 8.52397 
23 1 21.0472 10.1054 10.1052 
39 1 16.7533 8.85243 8.85244 
43 1 19.7944 5.81099 8.85247 
53 1 19.7945 8.85253 5.81076 
87 1 17.9523 8.75354 8.75354 
91 1 19.6957 7.0102 8.75353 
101 1 19.6956 8.75346 7.01143 
135 1 20.3491 9.40782 9.40775 
145 2 21.6841 1.03937 21.3816 
146 3 21.7491 2.05247 21.3282 
ITEM: TIMESTEP
20
ITEM: NUMBER OF ATOMS
146
ITEM: BOX BOUNDS pp pp pp
0.0000000000000000e+00 2.1884000000000000e+01
0.0000000000000000e+00 2.1885999999999999e+01
0.0000000000000000e+00 2.1885000000000002e+01
ITEM: ATOMS id type x y z 
16 1 1.60501 12.5466 12.5461 
32 1 0.0229428 10.9653 10.9643 
64 1 4.31741 12.2193 12.2194 
68 1 1.27699 15.2588 12.2191 
78 1 1.27704 12.2191 15.259 
112 1 3.11983 12.3175 12.3175 
116 1 1.37579 14.0595 12.3176 
126 1 1.37575 12.3176 14.0598 
144 1 0.721934 11.6634 11.6642 
9 1 8.52373 12.5472 12.5463 
25 1 10.1052 10.965 10.9641 
57 1 5.81048 12.2193 12.2193 
65 1 8.85166 15.2605 12.2193 
73 1 8.8517 12.22 15.2597 
105 1 7.01173 12.318 12.3179 
113 1 8.75304 14.0597 12.3179 
121 1 8.75312 12.3183 14.0601 
137 1 9.4075 11.6636 11.6653 
11 1 1.60611 19.4654 12.5427 
27 1 0.0235276 21.0483 10.9656 
59 1 4.31901 19.7943 12.219 
69 1 1.27662 16.7518 12.2189 
79 1 1.27405 19.7969 15.2546 
107 1 3.12026 19.6955 12.3162 
117 1 1.37541 17.951 12.3161 
127 1 1.37483 19.6961 14.0553 
139 1 0.72241 20.3485 11.6618 
14 1 8.52522 19.4663 12.5468 
30 1 10.1052 21.0478 10.9667 
62 1 5.81233 19.794 12.2191 
72 1 8.85168 16.7539 12.2194 
76 1 8.85188 19.795 15.2588 
110 1 7.0113 19.6954 12.3176 
120 1 8.75353 17.9512 12.3176 
124 1 8.75337 19.696 14.0597 
142 1 9.40771 20.3509 11.662 
13 1 1.60576 12.5435 19.4658 
29 1 0.0227411 10.9655 21.0488 
61 1 4.3202 12.2192 19.7944 
71 1 1.27414 15.2549 19.7969 
75 1 1.27668 12.219 16.7522 
109 1 3.11893 12.3165 19.6954 
119 1 1.37515 14.0555 19.696 
123 1 1.37564 12.3163 17.9513 
141 1 0.72166 11.6614 20.3495 
12 1 8.52504 12.5471 19.4666 
28 1 10.106 10.9657 21.0485 
60 1 5.81335 12.2196 19.7938 
70 1 8.85183 15.2592 19.7944 
80 1 8.85183 12.2201 16.7528 
108 1 7.0106 12.318 19.6955 
118 1 8.75345 14.0601 19.6957 
128 1 8.75354 12.3184 17.9522 
140 1 9.4076 11.663 20.349 
10 1 1.62464 19.4411 19.4464 
26 1 0.0232447 20.9859 21.0476 
58 1 4.32426 19.7976 19.7962 
66 1 1.27505 16.7457 19.7959 
74 1 1.27465 19.797 16.7465 
106 1 3.12696 19.6896 19.6893 
114 1 1.38407 17.9431 19.6868 
122 1 1.38148 19.6893 17.9439 
138 1 0.710771 20.2946 20.3593 
15 1 8.5277 19.4658 19.4654 
31 1 10.1048 21.0484 21.0482 
63 1 5.81597 19.7977 19.7969 
67 1 8.85195 16.7522 19.7945 
77 1 8.85202 19.7954 16.7521 
111 1 7.01556 19.6968 19.696 
115 1 8.75459 17.9518 19.6955 
125 1 8.75471 19.6964 17.951 
143 1 9.40861 20.3489 20.3487 
8 1 12.5405 1.60523 1.6057 
24 1 10.9649 0.0211283 0.0213019 
40 1 15.2475 1.27499 1.27481 
44 1 12.2188 4.31955 1.27618 
54 1 12.2187 1.2757 4.31982 
88 1 14.0483 1.37443 1.37516 
92 1 12.3155 3.12038 1.37529 
102 1 12.3154 1.37449 3.12088 
136 1 11.6604 0.720803 0.721221 
1 1 19.4787 1.56154 1.59034 
17 1 21.0956 0.204741 -0.0123784 
33 1 16.7371 1.27387 1.27278 
41 1 19.7957 4.31401 1.27569 
49 1 19.7987 1.2739 4.33281 
81 1 17.9398 1.36213 1.37085 
89 1 19.7003 3.11384 1.37054 
97 1 19.7004 1.36189 3.1304 
129 1 20.2933 0.723961 0.771841 
3 1 12.5455 8.52439 1.60501 
19 1 10.9643 10.1058 0.0231103 
35 1 15.2579 8.8507 1.27716 
45 1 12.219 5.81244 1.27613 
55 1 12.2192 8.8508 4.31806 
83 1 14.061 8.75281 1.37537 
93 1 12.3173 7.01178 1.37494 
103 1 12.3174 8.75257 3.11866 
131 1 11.6643 9.40762 0.720427 
6 1 19.4655 8.52667 1.60524 
22 1 21.0475 10.1048 0.0226882 
38 1 16.751 8.85121 1.27685 
48 1 19.7941 5.8131 1.27702 
52 1 19.794 8.85174 4.31721 
86 1 17.9528 8.75408 1.37584 
96 1 19.6958 7.0113 1.37507 
100 1 19.6952 8.75468 3.12009 
134 1 20.3488 9.40904 0.722596 
5 1 12.5462 1.60441 8.52509 
21 1 10.9646 0.0211002 10.1064 
37 1 15.2568 1.27595 8.85183 
47 1 12.2193 4.31801 8.85181 
51 1 12.219 1.27653 5.81291 
85 1 14.0598 1.37473 8.75354 
95 1 12.3175 3.11865 8.75351 
99 1 12.3175 1.37543 7.01205 
133 1 11.663 0.721369 9.40672 
4 1 19.4649 1.60567 8.53068 
20 1 21.0489 0.0217878 10.1064 
36 1 16.7497 1.27533 8.85224 
46 1 19.7943 4.31978 8.85221 
56 1 19.7962 1.27506 5.82301 
84 1 17.9509 1.37471 8.75551 
94 1 19.6953 3.1208 8.75558 
104 1 19.6957 1.37454 7.02207 
132 1 20.3491 0.720977 9.41088 
2 1 12.547 8.52428 8.52439 
18 1 10.9656 10.1059 10.1059 
34 1 15.2594 8.85167 8.8517 
42 1 12.2194 5.81131 8.85163 
50 1 12.2193 8.85095 5.81124 
82 1 14.0601 8.75313 8.75313 
90 1 12.3178 7.01041 8.75314 
98 1 12.3178 8.75274 7.01063 
130 1 11.6627 9.40702 9.40703 
7 1 19.4658 8.52449 8.52492 
23 1 21.0476 10.1052 10.106 
39 1 16.7525 8.85175 8.85176 
43 1 19.794 5.81281 8.85193 
53 1 19.794 8.85187 5.81067 
87 1 17.9519 8.75342 8.75332 
91 1 19.6952 7.01208 8.75329 
101 1 19.6952 8.75339 7.01172 
135 1 20.3496 9.40842 9.40697 
145 2 21.6421 1.09578 21.4145 
146 3 21.7983 2.05389 21.2867 
ITEM: TIMESTEP
30
ITEM: NUMBER OF ATOMS
146
ITEM: BOX BOUNDS pp pp pp
0.0000000000000000e+00 2.1884000000000000e+01
0.0000000000000000e+00 2.1885999999999999e+01
0.0000000000000000e+00 2.1885000000000002e+01
ITEM: ATOMS id type x y z 
16 1 1.60536 12.5453 12.5461 
32 1 0.0226453 10.965 10.9653 
64 1 4.31881 12.2197 12.2199 
68 1 1.27706 15.2584 12.2197 
78 1 1.2772 12.2198 15.2591 
112 1 3.11908 12.3176 12.3174 
116 1 1.37589 14.0591 12.3173 
126 1 1.37592 12.3174 14.0598 
144 1 0.722257 11.663 11.6635 
9 1 8.52471 12.5461 12.547 
25 1 10.106 10.9648 10.9653 
57 1 5.81198 12.22 12.22 
65 1 8.85094 15.2592 12.2199 
73 1 8.85089 12.2207 15.2594 
105 1 7.01103 12.3182 12.3179 
113 1 8.7529 14.0603 12.3178 
121 1 8.75284 12.3187 14.06 
137 1 9.40753 11.6636 11.6643 
11 1 1.60684 19.4638 12.5434 
27 1 0.0251234 21.0461 10.9654 
59 1 4.31954 19.794 12.2189 
69 1 1.27687 16.7515 12.2189 
79 1 1.27324 19.7984 15.2545 
107 1 3.12048 19.6946 12.315 
117 1 1.37638 17.9507 12.315 
127 1 1.37341 19.6974 14.0559 
139 1 0.72517 20.3478 11.6618 
14 1 8.52517 19.4659 12.5454 
30 1 10.1049 21.0479 10.9656 
62 1 5.81278 19.7939 12.2198 
72 1 8.85122 16.7523 12.2199 
76 1 8.85124 19.7948 15.2585 
110 1 7.01165 19.6952 12.3174 
120 1 8.75375 17.9518 12.3177 
124 1 8.75385 19.6958 14.0595 
142 1 9.40777 20.3497 11.6631 
13 1 1.60566 12.542 19.4655 
29 1 0.022006 10.9625 21.0491 
61 1 4.31902 12.2194 19.7937 
71 1 1.2729 15.2505 19.7981 
75 1 1.27736 12.2192 16.7523 
109 1 3.11998 12.3154 19.6949 
119 1 1.37382 14.0512 19.6975 
123 1 1.37635 12.3153 17.9514 
141 1 0.720365 11.6595 20.3504 
12 1 8.52566 12.5455 19.465 
28 1 10.1055 10.9648 21.0482 
60 1 5.81225 12.2201 19.7939 
70 1 8.85125 15.2589 19.7942 
80 1 8.85121 12.2207 16.7522 
108 1 7.01168 12.3178 19.6953 
118 1 8.75375 14.0595 19.6956 
128 1 8.75355 12.3184 17.952 
140 1 9.40799 11.6639 20.3492 
10 1 1.61883 19.4337 19.4513 
26 1 0.00975635 20.9721 21.0582 
58 1 4.32248 19.7946 19.7914 
66 1 1.28073 16.7402 19.7903 
74 1 1.27954 19.794 16.7481 
106 1 3.12475 19.6851 19.6891 
114 1 1.38846 17.9387 19.6824 
122 1 1.38186 19.6846 17.9458 
138 1 0.692714 20.2709 20.3739 
15 1 8.52772 19.4641 19.4639 
31 1 10.1056 21.0462 21.0455 
63 1 5.81633 19.7992 19.7976 
67 1 8.85193 16.7519 19.7942 
77 1 8.85208 19.795 16.7515 
111 1 7.01494 19.698 19.6976 
115 1 8.75573 17.9512 19.6947 
125 1 8.75584 19.6955 17.9506 
143 1 9.40703 20.3478 20.3473 
8 1 12.5327 1.60718 1.60776 
24 1 10.9619 0.0203112 0.0211046 
40 1 15.242 1.27446 1.27166 
44 1 12.2184 4.3216 1.27573 
54 1 12.2182 1.27544 4.32151 
88 1 14.0429 1.37495 1.37407 
92 1 12.3117 3.12213 1.37577 
102 1 12.3116 1.37527 3.12228 
136 1 11.6573 0.720382 0.72071 
1 1 19.4726 1.55336 1.59548 
17 1 21.115 0.22345 -0.0241617 
33 1 16.7326 1.27144 1.27268 
41 1 19.7908 4.30574 1.2807 
49 1 19.7985 1.27198 4.33619 
81 1 17.9354 1.35259 1.36864 
89 1 19.6961 3.10458 1.37432 
97 1 19.7016 1.35314 3.13341 
129 1 20.3129 0.739125 0.758101 
3 1 12.5473 8.52628 1.60458 
19 1 10.965 10.1059 0.0223173 
35 1 15.261 8.85004 1.27747 
45 1 12.2195 5.81451 1.2761 
55 1 12.2197 8.85023 4.31861 
83 1 14.0616 8.75304 1.37583 
93 1 12.3171 7.01387 1.37522 
103 1 12.3173 8.75304 3.119 
131 1 11.6635 9.40859 0.722091 
6 1 19.4662 8.5177 1.60507 
22 1 21.0445 10.1058 0.0262078 
38 1 16.7547 8.8508 1.27838 
48 1 19.7921 5.80022 1.27927 
52 1 19.7926 8.85148 4.31585 
86 1 17.9539 8.75269 1.37661 
96 1 19.6943 6.99971 1.37659 
100 1 19.6942 8.75301 3.11648 
134 1 20.3482 9.40518 0.72351 
5 1 12.5439 1.60528 8.52647 
21 1 10.9644 0.0212452 10.1066 
37 1 15.2566 1.27548 8.85149 
47 1 12.2197 4.31929 8.85134 
51 1 12.2195 1.27603 5.81437 
85 1 14.0575 1.37489 8.75414 
95 1 12.317 3.11972 8.75403 
99 1 12.3169 1.37533 7.01358 
133 1 11.6626 0.721194 9.40837 
4 1 19.463 1.60725 8.537 
20 1 21.0491 0.0210418 10.1089 
36 1 16.7499 1.27526 8.85264 
46 1 19.7944 4.32147 8.8526 
56 1 19.7993 1.27497 5.827 
84 1 17.949 1.37545 8.75895 
94 1 19.6947 3.12204 8.75901 
104 1 19.6967 1.37525 7.02601 
132 1 20.3491 0.721029 9.41415 
2 1 12.5457 8.52431 8.52442 
18 1 10.964 10.1058 10.1051 
34 1 15.2591 8.85099 8.85101 
42 1 12.22 5.8121 8.851 
50 1 12.22 8.85027 5.81173 
82 1 14.0597 8.75299 8.75306 
90 1 12.318 7.01116 8.753 
98 1 12.318 8.75251 7.01099 
130 1 11.6641 9.40777 9.40743 
7 1 19.4654 8.52688 8.52359 
23 1 21.048 10.106 10.1055 
39 1 16.7522 8.85115 8.85115 
43 1 19.7941 5.81464 8.85128 
53 1 19.7934 8.85085 5.80961 
87 1 17.9516 8.75369 8.75335 
91 1 19.6951 7.0138 8.75351 
101 1 19.695 8.75374 7.00854 
135 1 20.3492 9.40825 9.40695 
145 2 21.6066 1.17071 21.4424 
146 3 21.8783 2.11005 21.2187 
ITEM: TIMESTEP
40
ITEM: NUMBER OF ATOMS
146
ITEM: BOX BOUNDS pp pp pp
0.0000000000000000e+00 2.1884000000000000e+01
0.0000000000000000e+00 2.1885999999999999e+01
0.0000000000000000e+00 2.1885000000000002e+01
ITEM: ATOMS id type x y z 
16 1 1.60547 12.5452 12.5463 
32 1 0.0226436 10.9643 10.9655 
64 1 4.31851 12.2199 12.2198 
68 1 1.27726 15.2583 12.2193 
78 1 1.2776 12.2197 15.2588 
112 1 3.11888 12.3176 12.3178 
116 1 1.37569 14.0591 12.3177 
126 1 1.3758 12.3176 14.0598 
144 1 0.722854 11.6631 11.6624 
9 1 8.52483 12.5467 12.547 
25 1 10.1061 10.964 10.9649 
57 1 5.81105 12.2201 12.22 
65 1 8.85109 15.2589 12.22 
73 1 8.85106 12.2208 15.2599 
105 1 7.01087 12.3179 12.318 
113 1 8.75291 14.0599 12.3179 
121 1 8.75293 12.3183 14.06 
137 1 9.40656 11.6642 11.663 
11 1 1.6065 19.4638 12.5441 
27 1 0.0254171 21.0456 10.9652 
59 1 4.31892 19.7935 12.2185 
69 1 1.2775 16.7513 12.2184 
79 1 1.27549 19.7973 15.2578 
107 1 3.12014 19.6944 12.3163 
117 1 1.37636 17.9506 12.3162 
127 1 1.37395 19.6978 14.0586 
139 1 0.725439 20.3485 11.6626 
14 1 8.52475 19.4662 12.5464 
30 1 10.1049 21.0483 10.9656 
62 1 5.81259 19.7939 12.2194 
72 1 8.8513 16.7525 12.2198 
76 1 8.85174 19.7948 15.2584 
110 1 7.0112 19.6952 12.3174 
120 1 8.75365 17.9515 12.3175 
124 1 8.75359 19.6957 14.0595 
142 1 9.40854 20.3487 11.6628 
13 1 1.6043 12.5385 19.4665 
29 1 0.0196925 10.9623 21.0515 
61 1 4.31977 12.2193 19.7933 
71 1 1.27442 15.248 19.7965 
75 1 1.27757 12.2191 16.7522 
109 1 3.11986 12.3147 19.6951 
119 1 1.37297 14.0483 19.6984 
123 1 1.37619 12.3145 17.9517 
141 1 0.719916 11.6556 20.3516 
12 1 8.52581 12.546 19.4655 
28 1 10.1066 10.9644 21.0473 
60 1 5.81194 12.2201 19.7935 
70 1 8.85166 15.2585 19.794 
80 1 8.85125 12.2207 16.7525 
108 1 7.01145 12.3179 19.6952 
118 1 8.75339 14.0593 19.6954 
128 1 8.75342 12.3182 17.9524 
140 1 9.40705 11.6637 20.3503 
10 1 1.61216 19.4352 19.4574 
26 1 0.00795383 20.975 21.0604 
58 1 4.3194 19.793 19.7913 
66 1 1.28235 16.7381 19.7888 
74 1 1.27963 19.7924 16.7506 
106 1 3.12164 19.6828 19.689 
114 1 1.38946 17.9364 19.6811 
122 1 1.38178 19.6822 17.9485 
138 1 0.685708 20.2655 20.3802 
15 1 8.52536 19.4644 19.4649 
31 1 10.1056 21.0456 21.0455 
63 1 5.8133 19.7979 19.7955 
67 1 8.85228 16.7514 19.7938 
77 1 8.85245 19.7946 16.7518 
111 1 7.01236 19.6981 19.6966 
115 1 8.75472 17.9512 19.6944 
125 1 8.75489 19.6952 17.9508 
143 1 9.40603 20.3482 20.347 
8 1 12.5317 1.60704 1.60751 
24 1 10.9605 0.0203597 0.0214569 
40 1 15.2403 1.27479 1.27201 
44 1 12.2171 4.32259 1.27625 
54 1 12.2171 1.27574 4.32143 
88 1 14.0412 1.37621 1.37358 
92 1 12.31 3.12271 1.37592 
102 1 12.3101 1.37577 3.12233 
136 1 11.6571 0.720509 0.720063 
1 1 19.4732 1.54703 1.59459 
33 1 16.7308 1.26801 1.27159 
41 1 19.7873 4.29719 1.28394 
49 1 19.799 1.269 4.33779 
81 1 17.9336 1.3484 1.36851 
89 1 19.6916 3.09699 1.37852 
97 1 19.701 1.34933 3.13493 
129 1 20.3184 0.742265 0.753846 
3 1 12.5484 8.52713 1.6051 
19 1 10.9653 10.1063 0.022789 
35 1 15.2629 8.85054 1.27845 
45 1 12.2193 5.81486 1.27619 
55 1 12.2198 8.85024 4.31775 
83 1 14.0633 8.7534 1.37598 
93 1 12.3184 7.01433 1.37483 
103 1 12.3185 8.75332 3.11837 
131 1 11.6635 9.40832 0.722466 
6 1 19.467 8.51286 1.60348 
22 1 21.0433 10.1031 0.0262915 
38 1 16.7549 8.85004 1.279 
48 1 19.7897 5.79911 1.28185 
52 1 19.792 8.85064 4.31494 
86 1 17.9544 8.74866 1.37633 
96 1 19.6935 6.99759 1.37754 
100 1 19.6944 8.74902 3.11644 
134 1 20.3488 9.40225 0.724382 
5 1 12.5448 1.60493 8.52667 
21 1 10.9646 0.0210926 10.1068 
37 1 15.2571 1.27544 8.85182 
47 1 12.2195 4.31924 8.85152 
51 1 12.2191 1.27583 5.8144 
85 1 14.0579 1.37476 8.75431 
95 1 12.3167 3.11983 8.75441 
99 1 12.3168 1.3751 7.01346 
133 1 11.6609 0.721792 9.40889 
4 1 19.4637 1.60718 8.53756 
20 1 21.0481 0.0210558 10.1105 
36 1 16.7494 1.27563 8.85366 
46 1 19.7939 4.32235 8.85378 
56 1 19.7988 1.27552 5.82851 
84 1 17.9486 1.37572 8.76021 
94 1 19.6945 3.12274 8.76035 
104 1 19.6972 1.37661 7.02776 
132 1 20.3503 0.720966 9.41369 
2 1 12.547 8.52476 8.52428 
18 1 10.9637 10.1059 10.106 
34 1 15.259 8.85078 8.85108 
42 1 12.22 5.81223 8.85119 
50 1 12.2199 8.8502 5.81087 
82 1 14.0598 8.7529 8.75279 
90 1 12.3177 7.01138 8.75297 
98 1 12.3177 8.75261 7.01053 
130 1 11.6657 9.40839 9.40783 
135 1 20.3481 9.40959 9.40587 
7 1 19.4665 8.52635 8.52222 
23 1 21.0478 10.1056 10.1057 
39 1 16.7524 8.8511 8.85111 
43 1 19.794 5.81495 8.85141 
53 1 19.7925 8.85123 5.80837 
87 1 17.9521 8.75408 8.7524 
91 1 19.6952 7.01426 8.75225 
101 1 19.6946 8.75396 7.00733 
145 2 21.6045 1.2104 21.4441 
146 3 21.9073 2.11619 21.1929 
17 1 21.1319 0.255527 21.8471 
ITEM: TIMESTEP
50
ITEM: NUMBER OF ATOMS
146
ITEM: BOX BOUNDS pp pp pp
0.0000000000000000e+00 2.1884000000000000e+01
0.0000000000000000e+00 2.1885999999999999e+01
0.0000000000000000e+00 2.1885000000000002e+01
ITEM: ATOMS id type x y z 
16 1 1.60607 12.5453 12.5458 
32 1 0.0246058 10.964 10.9648 
64 1 4.31798 12.22 12.22 
68 1 1.27739 15.2583 12.2192 
78 1 1.27767 12.22 15.2595 
112 1 3.11919 12.3176 12.3179 
116 1 1.37588 14.0591 12.3175 
126 1 1.37607 12.3174 14.0599 
144 1 0.720682 11.6629 11.6632 
9 1 8.52494 12.5471 12.5466 
25 1 10.105 10.9663 10.9657 
57 1 5.8118 12.2201 12.2201 
65 1 8.85106 15.2594 12.22 
73 1 8.85099 12.2207 15.2594 
105 1 7.01002 12.318 12.318 
113 1 8.75297 14.0603 12.318 
121 1 8.75305 12.3183 14.0611 
137 1 9.40575 11.6614 11.6619 
11 1 1.60729 19.465 12.5471 
27 1 0.0267094 21.0464 10.9657 
59 1 4.31904 19.7931 12.2187 
69 1 1.27794 16.7518 12.2186 
79 1 1.27735 19.7962 15.2598 
107 1 3.11934 19.6938 12.3172 
117 1 1.37663 17.9508 12.3171 
127 1 1.37509 19.6973 14.0609 
139 1 0.72425 20.3466 11.6645 
14 1 8.5245 19.4657 12.5468 
30 1 10.1053 21.0489 10.9658 
62 1 5.8112 19.7936 12.219 
72 1 8.85129 16.7524 12.2198 
76 1 8.85202 19.7945 15.2592 
110 1 7.0113 19.6953 12.3176 
120 1 8.75328 17.9519 12.3178 
124 1 8.75351 19.6957 14.0596 
142 1 9.40759 20.3457 11.6633 
13 1 1.60332 12.5358 19.4661 
29 1 0.0170677 10.9601 21.0512 
61 1 4.31824 12.2192 19.7931 
71 1 1.27565 15.2462 19.7955 
75 1 1.27798 12.2189 16.7523 
109 1 3.11934 12.3134 19.6952 
119 1 1.3728 14.0459 19.6985 
123 1 1.37602 12.3132 17.9518 
141 1 0.721593 11.655 20.3537 
12 1 8.52537 12.5469 19.4664 
28 1 10.1073 10.966 21.0473 
60 1 5.81295 12.2202 19.7932 
70 1 8.85168 15.259 19.7939 
80 1 8.85108 12.2207 16.7531 
108 1 7.0119 12.318 19.6949 
118 1 8.75371 14.0598 19.6953 
128 1 8.7536 12.3181 17.9516 
140 1 9.40579 11.6608 20.3504 
10 1 1.60742 19.4332 19.4617 
26 1 0.00701897 20.9825 21.0621 
58 1 4.31562 19.7906 19.7899 
66 1 1.28472 16.7358 19.7863 
74 1 1.28105 19.7901 16.7548 
106 1 3.11773 19.681 19.6906 
114 1 1.38924 17.9353 19.6811 
122 1 1.37998 19.6803 17.9527 
138 1 0.678521 20.2637 20.387 
15 1 8.52168 19.4651 19.4651 
31 1 10.102 21.046 21.0464 
63 1 5.8095 19.7967 19.7934 
67 1 8.85226 16.7524 19.7931 
77 1 8.85246 19.7941 16.7523 
111 1 7.00828 19.6976 19.6956 
115 1 8.75351 17.9507 19.6944 
125 1 8.75373 19.6947 17.9516 
143 1 9.40816 20.3466 20.345 
8 1 12.5322 1.60716 1.60636 
24 1 10.9627 0.0182773 0.0204386 
40 1 15.2392 1.27503 1.27166 
44 1 12.2157 4.3217 1.27666 
54 1 12.2158 1.27608 4.32171 
88 1 14.04 1.37706 1.37383 
92 1 12.3083 3.12288 1.37636 
102 1 12.3087 1.37612 3.12174 
136 1 11.6519 0.72331 0.720559 
1 1 19.471 1.53741 1.59652 
33 1 16.7295 1.26522 1.27139 
41 1 19.7827 4.29612 1.2884 
49 1 19.7986 1.26664 4.33876 
81 1 17.9334 1.34283 1.36795 
89 1 19.6883 3.09402 1.38151 
97 1 19.7009 1.34418 3.13501 
129 1 20.3235 0.75141 0.750008 
3 1 12.5493 8.52783 1.60545 
19 1 10.9657 10.1065 0.0239439 
35 1 15.2631 8.85092 1.27894 
45 1 12.2194 5.81609 1.2761 
55 1 12.2201 8.8503 4.31766 
83 1 14.0637 8.75419 1.37662 
93 1 12.3192 7.01457 1.3748 
103 1 12.3192 8.75369 3.11863 
131 1 11.6641 9.4085 0.720676 
6 1 19.4674 8.50948 1.60426 
22 1 21.0435 10.1024 0.028447 
38 1 16.7573 8.84855 1.27924 
48 1 19.787 5.78952 1.28449 
52 1 19.7916 8.84914 4.3144 
86 1 17.9559 8.74555 1.37636 
96 1 19.6932 6.9894 1.37792 
100 1 19.6942 8.74578 3.11468 
134 1 20.3473 9.39643 0.723392 
5 1 12.5445 1.60513 8.52621 
21 1 10.9643 0.0209124 10.1058 
37 1 15.2565 1.27548 8.8523 
47 1 12.2194 4.3185 8.85174 
51 1 12.2186 1.27576 5.8147 
85 1 14.0574 1.37468 8.75436 
95 1 12.3168 3.1195 8.7544 
99 1 12.3168 1.37495 7.01388 
133 1 11.6611 0.72413 9.4105 
4 1 19.4644 1.6074 8.53704 
20 1 21.0494 0.0193423 10.109 
36 1 16.75 1.27595 8.85477 
46 1 19.7934 4.3221 8.85498 
56 1 19.799 1.27598 5.82934 
84 1 17.9498 1.37615 8.76114 
94 1 19.6942 3.12267 8.76164 
104 1 19.6972 1.37753 7.02844 
132 1 20.3486 0.723145 9.41792 
2 1 12.5488 8.52624 8.52428 
18 1 10.9676 10.1062 10.1057 
34 1 15.2601 8.85056 8.85096 
42 1 12.2197 5.81255 8.85115 
50 1 12.2197 8.84997 5.81108 
82 1 14.0608 8.75284 8.75267 
90 1 12.318 7.0116 8.753 
98 1 12.3178 8.75284 7.00941 
130 1 11.6617 9.40697 9.40841 
135 1 20.3463 9.4099 9.40769 
7 1 19.466 8.52723 8.52073 
23 1 21.048 10.106 10.1043 
39 1 16.7531 8.85102 8.85066 
43 1 19.7938 5.8157 8.85138 
53 1 19.7918 8.8516 5.80692 
87 1 17.9514 8.7541 8.75162 
91 1 19.6955 7.01452 8.75142 
101 1 19.6942 8.75445 7.0067 
145 2 21.6088 1.24316 21.4402 
146 3 21.9372 2.13367 21.1665 
17 1 21.1465 0.275784 21.8345 
ITEM: TIMESTEP
55
ITEM: NUMBER OF ATOMS
146
ITEM: BOX BOUNDS pp pp pp
0.0000000000000000e+00 2.1884000000000000e+01
0.0000000000000000e+00 2.1885999999999999e+01
0.0000000000000000e+00 2.1885000000000002e+01
ITEM: ATOMS id type x y z 
16 1 1.60607 12.5453 12.5458 
32 1 0.0245968 10.9639 10.9648 
64 1 4.31799 12.22 12.22 
68 1 1.27739 15.2583 12.2192 
78 1 1.27767 12.22 15.2595 
112 1 3.11919 12.3176 12.3179 
116 1 1.37588 14.0591 12.3175 
126 1 1.37607 12.3174 14.0599 
144 1 0.720695 11.663 11.6632 
9 1 8.52493 12.5471 12.5466 
25 1 10.105 10.9663 10.9656 
57 1 5.81179 12.2201 12.2201 
65 1 8.85106 15.2594 12.22 
73 1 8.85099 12.2207 15.2594 
105 1 7.01003 12.318 12.318 
113 1 8.75297 14.0603 12.318 
121 1 8.75304 12.3183 14.0611 
137 1 9.40574 11.6614 11.6619 
11 1 1.60729 19.4649 12.5471 
27 1 0.0267108 21.0464 10.9657 
59 1 4.31903 19.7931 12.2187 
69 1 1.27794 16.7518 12.2186 
79 1 1.27735 19.7962 15.2598 
107 1 3.11935 19.6938 12.3172 
117 1 1.37663 17.9508 12.3171 
127 1 1.37509 19.6973 14.0609 
139 1 0.724249 20.3466 11.6645 
14 1 8.5245 19.4657 12.5468 
30 1 10.1053 21.0489 10.9658 
62 1 5.81121 19.7936 12.219 
72 1 8.85129 16.7525 12.2198 
76 1 8.85202 19.7945 15.2592 
110 1 7.01129 19.6953 12.3176 
120 1 8.75328 17.9519 12.3178 
124 1 8.75351 19.6957 14.0596 
142 1 9.40761 20.3457 11.6633 
13 1 1.60332 12.5358 19.4661 
29 1 0.0170772 10.9601 21.0512 
61 1 4.31825 12.2192 19.7931 
71 1 1.27565 15.2462 19.7955 
75 1 1.27798 12.2189 16.7523 
109 1 3.11934 12.3134 19.6952 
119 1 1.3728 14.0459 19.6985 
123 1 1.37602 12.3132 17.9518 
141 1 0.721577 11.655 20.3537 
12 1 8.52536 12.5469 19.4664 
28 1 10.1073 10.9659 21.0474 
60 1 5.81295 12.2202 19.7932 
70 1 8.85168 15.259 19.7939 
80 1 8.85108 12.2207 16.7531 
108 1 7.0119 12.318 19.6949 
118 1 8.75371 14.0598 19.6953 
128 1 8.75359 12.3181 17.9516 
140 1 9.40578 11.6608 20.3504 
10 1 1.60741 19.4332 19.4617 
26 1 0.00701177 20.9826 21.0621 
58 1 4.31562 19.7906 19.7899 
66 1 1.28473 16.7358 19.7863 
74 1 1.28105 19.7901 16.7548 
106 1 3.11773 19.681 19.6906 
114 1 1.38924 17.9353 19.6811 
122 1 1.37998 19.6803 17.9527 
138 1 0.678524 20.2637 20.387 
15 1 8.52168 19.4651 19.4651 
31 1 10.1021 21.046 21.0464 
63 1 5.8095 19.7967 19.7934 
67 1 8.85226 16.7524 19.7931 
77 1 8.85246 19.7941 16.7523 
111 1 7.00829 19.6976 19.6956 
115 1 8.75351 17.9507 19.6944 
125 1 8.75373 19.6947 17.9516 
143 1 9.40816 20.3466 20.345 
8 1 12.5322 1.60716 1.60636 
24 1 10.9627 0.0182784 0.0204394 
40 1 15.2392 1.27503 1.27166 
44 1 12.2157 4.32171 1.27666 
54 1 12.2158 1.27608 4.32171 
88 1 14.04 1.37706 1.37383 
92 1 12.3083 3.12287 1.37636 
102 1 12.3087 1.37612 3.12175 
136 1 11.6519 0.723309 0.720558 
1 1 19.471 1.53741 1.59651 
33 1 16.7295 1.26522 1.27139 
41 1 19.7827 4.2961 1.28841 
49 1 19.7986 1.26664 4.33876 
81 1 17.9334 1.34282 1.36795 
89 1 19.6883 3.09402 1.38151 