ITEM: TIMESTEP
0
ITEM: NUMBER OF ATOMS
72
ITEM: BOX BOUNDS pp pp pp
0.0000000000000000e+00 1.3344799999999999e+01
0.0000000000000000e+00 1.3344799999999999e+01
0.0000000000000000e+00 1.3344799999999999e+01
ITEM: ATOMS id type x y z 
4 1 0 5.66794 7.67686 
5 1 0 4.67762 8.66718 
6 1 0 3.81007 9.53473 
10 1 0 1.00446 12.3403 
11 1 0 1.99478 11.35 
12 1 0 2.86233 10.4825 
52 1 5.66794 0 7.67686 
53 1 4.67762 0 8.66718 
54 1 3.81007 0 9.53473 
58 1 1.00446 0 12.3403 
59 1 1.99478 0 11.35 
60 1 2.86233 0 10.4825 
28 1 5.66794 7.67686 0 
29 1 4.67762 8.66718 0 
30 1 3.81007 9.53473 0 
34 1 1.00446 12.3403 0 
35 1 1.99478 11.35 0 
36 1 2.86233 10.4825 0 
40 1 0 7.67686 5.66794 
41 1 0 8.66718 4.67762 
42 1 0 9.53473 3.81007 
46 1 0 12.3403 1.00446 
47 1 0 11.35 1.99478 
48 1 0 10.4825 2.86233 
25 1 1.00446 7.67686 6.6724 
26 1 1.99478 8.66718 6.6724 
27 1 2.86233 9.53473 6.6724 
31 1 5.66794 12.3403 6.6724 
32 1 4.67762 11.35 6.6724 
33 1 3.81007 10.4825 6.6724 
49 1 5.66794 6.6724 12.3403 
50 1 4.67762 6.6724 11.35 
51 1 3.81007 6.6724 10.4825 
55 1 1.00446 6.6724 7.67686 
56 1 1.99478 6.6724 8.66718 
57 1 2.86233 6.6724 9.53473 
16 1 7.67686 0 5.66794 
17 1 8.66718 0 4.67762 
18 1 9.53473 0 3.81007 
22 1 12.3403 0 1.00446 
23 1 11.35 0 1.99478 
24 1 10.4825 0 2.86233 
64 1 7.67686 5.66794 0 
65 1 8.66718 4.67762 0 
66 1 9.53473 3.81007 0 
70 1 12.3403 1.00446 0 
71 1 11.35 1.99478 0 
72 1 10.4825 2.86233 0 
1 1 6.6724 1.00446 7.67686 
2 1 6.6724 1.99478 8.66718 
3 1 6.6724 2.86233 9.53473 
7 1 6.6724 5.66794 12.3403 
8 1 6.6724 4.67762 11.35 
9 1 6.6724 3.81007 10.4825 
61 1 12.3403 5.66794 6.6724 
62 1 11.35 4.67762 6.6724 
63 1 10.4825 3.81007 6.6724 
67 1 7.67686 1.00446 6.6724 
68 1 8.66718 1.99478 6.6724 
69 1 9.53473 2.86233 6.6724 
13 1 7.67686 6.6724 1.00446 
14 1 8.66718 6.6724 1.99478 
15 1 9.53473 6.6724 2.86233 
19 1 12.3403 6.6724 5.66794 
20 1 11.35 6.6724 4.67762 
21 1 10.4825 6.6724 3.81007 
37 1 6.6724 12.3403 5.66794 
38 1 6.6724 11.35 4.67762 
39 1 6.6724 10.4825 3.81007 
43 1 6.6724 7.67686 1.00446 
44 1 6.6724 8.66718 1.99478 
45 1 6.6724 9.53473 2.86233 
ITEM: TIMESTEP
10
ITEM: NUMBER OF ATOMS
72
ITEM: BOX BOUNDS pp pp pp
0.0000000000000000e+00 1.3344799999999999e+01
0.0000000000000000e+00 1.3344799999999999e+01
0.0000000000000000e+00 1.3344799999999999e+01
ITEM: ATOMS id type x y z 
4 1 0.0018247 5.6486 7.69793 
5 1 -0.00310405 4.68154 8.66023 
6 1 0.00158447 3.81465 9.53196 
10 1 -0.000214609 1.02469 12.3202 
11 1 0.00320533 1.98778 11.3539 
12 1 -0.00153009 2.85954 10.487 
52 1 5.6486 0.0018247 7.69793 
53 1 4.68154 -0.00310405 8.66023 
54 1 3.81465 0.00158447 9.53196 
58 1 1.02469 -0.000214609 12.3202 
59 1 1.98778 0.00320533 11.3539 
60 1 2.85954 -0.00153009 10.487 
28 1 5.6486 7.69793 0.0018247 
29 1 4.68154 8.66023 -0.00310405 
30 1 3.81465 9.53196 0.00158447 
34 1 1.02469 12.3202 -0.000214609 
35 1 1.98778 11.3539 0.00320533 
36 1 2.85954 10.487 -0.00153009 
40 1 0.0018247 7.69793 5.6486 
41 1 -0.00310406 8.66023 4.68154 
42 1 0.00158448 9.53196 3.81465 
46 1 -0.000214609 12.3202 1.02469 
47 1 0.00320533 11.3539 1.98778 
48 1 -0.00153009 10.487 2.85954 
25 1 1.02528 7.6967 6.67326 
26 1 1.98805 8.6627 6.67024 
27 1 2.85895 9.53036 6.67368 
31 1 5.64741 12.3209 6.67337 
32 1 4.68417 11.354 6.66989 
33 1 3.8129 10.4865 6.67386 
49 1 5.64741 6.67337 12.3209 
50 1 4.68417 6.66989 11.354 
51 1 3.8129 6.67386 10.4865 
55 1 1.02528 6.67326 7.6967 
56 1 1.98805 6.67024 8.6627 
57 1 2.85895 6.67368 9.53036 
16 1 7.69793 0.0018247 5.6486 
17 1 8.66023 -0.00310406 4.68154 
18 1 9.53196 0.00158448 3.81465 
22 1 12.3202 -0.000214609 1.02469 
23 1 11.3539 0.00320533 1.98778 
24 1 10.487 -0.00153009 2.85954 
64 1 7.69793 5.6486 0.0018247 
65 1 8.66023 4.68154 -0.00310405 
66 1 9.53196 3.81465 0.00158447 
70 1 12.3202 1.02469 -0.000214609 
71 1 11.3539 1.98778 0.00320533 
72 1 10.487 2.85954 -0.00153009 
1 1 6.67326 1.02528 7.6967 
2 1 6.67024 1.98805 8.6627 
3 1 6.67368 2.85895 9.53036 
7 1 6.67337 5.64741 12.3209 
8 1 6.66989 4.68417 11.354 
9 1 6.67386 3.8129 10.4865 
61 1 12.3209 5.64741 6.67337 
62 1 11.354 4.68417 6.66989 
63 1 10.4865 3.8129 6.67386 
67 1 7.6967 1.02528 6.67326 
68 1 8.6627 1.98805 6.67024 
69 1 9.53036 2.85895 6.67368 
13 1 7.6967 6.67326 1.02528 
14 1 8.6627 6.67024 1.98805 
15 1 9.53036 6.67368 2.85895 
19 1 12.3209 6.67337 5.64741 
20 1 11.354 6.66989 4.68417 
21 1 10.4865 6.67386 3.8129 
37 1 6.67337 12.3209 5.64741 
38 1 6.66989 11.354 4.68417 
39 1 6.67386 10.4865 3.8129 
43 1 6.67326 7.6967 1.02528 
44 1 6.67024 8.6627 1.98805 
45 1 6.67368 9.53036 2.85895 
ITEM: TIMESTEP
20
ITEM: NUMBER OF ATOMS
72
ITEM: BOX BOUNDS pp pp pp
0.0000000000000000e+00 1.3344799999999999e+01
0.0000000000000000e+00 1.3344799999999999e+01
0.0000000000000000e+00 1.3344799999999999e+01
ITEM: ATOMS id type x y z 
4 1 0.00323229 5.64217 7.70556 
5 1 -0.00264327 4.68086 8.66151 
6 1 0.00135072 3.81375 9.53311 
10 1 -0.000235709 1.03158 12.3132 
11 1 0.00330981 1.98876 11.3529 
12 1 -0.00143755 2.86073 10.4862 
52 1 5.64217 0.00323229 7.70556 
53 1 4.68086 -0.00264327 8.66151 
54 1 3.81375 0.00135072 9.53311 
58 1 1.03158 -0.000235709 12.3132 
59 1 1.98876 0.00330981 11.3529 
60 1 2.86073 -0.00143755 10.4862 
28 1 5.64217 7.70556 0.00323229 
29 1 4.68086 8.66151 -0.00264327 
30 1 3.81375 9.53311 0.00135072 
34 1 1.03158 12.3132 -0.000235709 
35 1 1.98876 11.3529 0.00330981 
36 1 2.86073 10.4862 -0.00143755 
40 1 0.00323229 7.70556 5.64217 
41 1 -0.00264327 8.66151 4.68086 
42 1 0.00135072 9.53311 3.81375 
46 1 -0.000235709 12.3132 1.03158 
47 1 0.00330981 11.3529 1.98876 
48 1 -0.00143755 10.4862 2.86073 
25 1 1.03235 7.70295 6.67377 
26 1 1.98845 8.66317 6.67036 
27 1 2.85918 9.53094 6.674 
31 1 5.63966 12.314 6.67399 
32 1 4.68265 11.3524 6.67006 
33 1 3.81136 10.4846 6.67415 
49 1 5.63966 6.67399 12.314 
50 1 4.68265 6.67006 11.3524 
51 1 3.81136 6.67415 10.4846 
55 1 1.03235 6.67377 7.70295 
56 1 1.98845 6.67036 8.66317 
57 1 2.85918 6.674 9.53094 
16 1 7.70556 0.00323229 5.64217 
17 1 8.66151 -0.00264327 4.68086 
18 1 9.53311 0.00135072 3.81375 
22 1 12.3132 -0.000235709 1.03158 
23 1 11.3529 0.00330981 1.98876 
24 1 10.4862 -0.00143755 2.86073 
64 1 7.70556 5.64217 0.00323229 
65 1 8.66151 4.68086 -0.00264327 
66 1 9.53311 3.81375 0.00135072 
70 1 12.3132 1.03158 -0.000235709 
71 1 11.3529 1.98876 0.00330981 
72 1 10.4862 2.86073 -0.00143755 
1 1 6.67377 1.03235 7.70295 
2 1 6.67036 1.98845 8.66317 
3 1 6.674 2.85918 9.53094 
7 1 6.67399 5.63966 12.314 
8 1 6.67006 4.68265 11.3524 
9 1 6.67415 3.81136 10.4846 
61 1 12.314 5.63966 6.67399 
62 1 11.3524 4.68265 6.67006 
63 1 10.4846 3.81136 6.67415 
67 1 7.70295 1.03235 6.67377 
68 1 8.66317 1.98845 6.67036 
69 1 9.53094 2.85918 6.674 
13 1 7.70295 6.67377 1.03235 
14 1 8.66317 6.67036 1.98845 
15 1 9.53094 6.674 2.85918 
19 1 12.314 6.67399 5.63966 
20 1 11.3524 6.67006 4.68265 
21 1 10.4846 6.67415 3.81136 
37 1 6.67399 12.314 5.63966 
38 1 6.67006 11.3524 4.68265 
39 1 6.67415 10.4846 3.81136 
43 1 6.67377 7.70295 1.03235 
44 1 6.67036 8.66317 1.98845 
45 1 6.674 9.53094 2.85918 
ITEM: TIMESTEP
30
ITEM: NUMBER OF ATOMS
72
ITEM: BOX BOUNDS pp pp pp
0.0000000000000000e+00 1.3344799999999999e+01
0.0000000000000000e+00 1.3344799999999999e+01
0.0000000000000000e+00 1.3344799999999999e+01
ITEM: ATOMS id type x y z 
4 1 0.0204214 5.64716 7.71698 
5 1 0.0011205 4.68307 8.66374 
6 1 0.000503291 3.8141 9.53295 
10 1 -0.000417445 1.03234 12.3121 
11 1 0.00374023 1.989 11.3525 
12 1 -0.00151844 2.86119 10.4864 
52 1 5.64716 0.0204214 7.71698 
53 1 4.68307 0.0011205 8.66374 
54 1 3.8141 0.000503291 9.53295 
58 1 1.03234 -0.000417445 12.3121 
59 1 1.989 0.00374023 11.3525 
60 1 2.86119 -0.00151844 10.4864 
28 1 5.64716 7.71698 0.0204214 
29 1 4.68307 8.66374 0.00112049 
30 1 3.8141 9.53295 0.000503292 
34 1 1.03234 12.3121 -0.000417445 
35 1 1.989 11.3525 0.00374023 
36 1 2.86119 10.4864 -0.00151844 
40 1 0.0204216 7.71698 5.64716 
41 1 0.00111996 8.66374 4.68307 
42 1 0.000503585 9.53295 3.8141 
46 1 -0.00041745 12.3121 1.03234 
47 1 0.00374023 11.3525 1.989 
48 1 -0.00151845 10.4864 2.86119 
25 1 1.03338 7.6982 6.67886 
26 1 1.98392 8.65771 6.67162 
27 1 2.85356 9.52597 6.67459 
31 1 5.62953 12.315 6.68445 
32 1 4.67485 11.3462 6.67206 
33 1 3.80465 10.4774 6.67464 
49 1 5.62953 6.68445 12.315 
50 1 4.67485 6.67206 11.3462 
51 1 3.80465 6.67464 10.4774 
55 1 1.03338 6.67886 7.6982 
56 1 1.98392 6.67162 8.65771 
57 1 2.85356 6.67459 9.52597 
16 1 7.71698 0.0204216 5.64716 
17 1 8.66374 0.00111996 4.68307 
18 1 9.53295 0.000503585 3.8141 
22 1 12.3121 -0.00041745 1.03234 
23 1 11.3525 0.00374023 1.989 
24 1 10.4864 -0.00151845 2.86119 
64 1 7.71698 5.64716 0.0204214 
65 1 8.66374 4.68307 0.00112049 
66 1 9.53295 3.8141 0.000503292 
70 1 12.3121 1.03234 -0.000417445 
71 1 11.3525 1.989 0.00374023 
72 1 10.4864 2.86119 -0.00151844 
1 1 6.67886 1.03338 7.6982 
2 1 6.67162 1.98392 8.65771 
3 1 6.67459 2.85356 9.52597 
7 1 6.68445 5.62953 12.315 
8 1 6.67206 4.67485 11.3462 
9 1 6.67464 3.80465 10.4774 
61 1 12.315 5.62953 6.68445 
62 1 11.3462 4.67485 6.67206 
63 1 10.4774 3.80465 6.67464 
67 1 7.6982 1.03338 6.67886 
68 1 8.65771 1.98392 6.67162 
69 1 9.52597 2.85356 6.67459 
13 1 7.6982 6.67886 1.03338 
14 1 8.65771 6.67162 1.98392 
15 1 9.52597 6.67459 2.85356 
19 1 12.315 6.68445 5.62953 
20 1 11.3462 6.67206 4.67485 
21 1 10.4774 6.67464 3.80465 
37 1 6.68445 12.315 5.62953 
38 1 6.67206 11.3462 4.67485 
39 1 6.67464 10.4774 3.80465 
43 1 6.67886 7.6982 1.03338 
44 1 6.67162 8.65771 1.98392 
45 1 6.67459 9.52597 2.85356 
ITEM: TIMESTEP
40
ITEM: NUMBER OF ATOMS
72
ITEM: BOX BOUNDS pp pp pp
0.0000000000000000e+00 1.3344799999999999e+01
0.0000000000000000e+00 1.3344799999999999e+01
0.0000000000000000e+00 1.3344799999999999e+01
ITEM: ATOMS id type x y z 
4 1 0.0271558 5.65542 7.7148 
5 1 0.00805634 4.6896 8.66422 
6 1 -0.00104421 3.81705 9.52991 
10 1 -0.000619032 1.03191 12.3122 
11 1 0.00430208 1.98975 11.352 
12 1 -0.00217427 2.86203 10.4852 
52 1 5.65542 0.0271558 7.7148 
53 1 4.6896 0.00805634 8.66422 
54 1 3.81705 -0.00104421 9.52991 
58 1 1.03191 -0.000619032 12.3122 
59 1 1.98975 0.00430208 11.352 
60 1 2.86203 -0.00217427 10.4852 
28 1 5.65542 7.7148 0.0271558 
29 1 4.6896 8.66422 0.00805633 
30 1 3.81705 9.52991 -0.0010442 
34 1 1.03191 12.3122 -0.000619025 
35 1 1.98975 11.352 0.00430208 
36 1 2.86203 10.4852 -0.00217427 
40 1 0.0271558 7.7148 5.65542 
41 1 0.0080561 8.66422 4.6896 
42 1 -0.00104413 9.52991 3.81705 
46 1 -0.000619012 12.3122 1.03191 
47 1 0.00430201 11.352 1.98975 
48 1 -0.00217419 10.4852 2.86203 
25 1 1.03007 7.68885 6.68486 
26 1 1.97962 8.65067 6.67421 
27 1 2.846 9.51796 6.67449 
31 1 5.63354 12.3191 6.68461 
32 1 4.67146 11.3465 6.67548 
33 1 3.8038 10.4768 6.67435 
49 1 5.63354 6.68461 12.3191 
50 1 4.67146 6.67548 11.3465 
51 1 3.8038 6.67435 10.4768 
55 1 1.03007 6.68486 7.68885 
56 1 1.97962 6.67421 8.65067 
57 1 2.846 6.67449 9.51796 
16 1 7.7148 0.0271558 5.65542 
17 1 8.66422 0.0080561 4.6896 
18 1 9.52991 -0.00104413 3.81705 
22 1 12.3122 -0.000619012 1.03191 
23 1 11.352 0.00430201 1.98975 
24 1 10.4852 -0.00217419 2.86203 
64 1 7.7148 5.65542 0.0271558 
65 1 8.66422 4.6896 0.00805633 
66 1 9.52991 3.81705 -0.0010442 
70 1 12.3122 1.03191 -0.000619025 
71 1 11.352 1.98975 0.00430208 
72 1 10.4852 2.86203 -0.00217427 
1 1 6.68486 1.03007 7.68885 
2 1 6.67421 1.97962 8.65067 
3 1 6.67449 2.846 9.51796 
7 1 6.68461 5.63354 12.3191 
8 1 6.67548 4.67146 11.3465 
9 1 6.67435 3.8038 10.4768 
61 1 12.3191 5.63354 6.68461 
62 1 11.3465 4.67146 6.67548 
63 1 10.4768 3.8038 6.67435 
67 1 7.68885 1.03007 6.68486 
68 1 8.65067 1.97962 6.67421 
69 1 9.51796 2.846 6.67449 
13 1 7.68885 6.68486 1.03007 
14 1 8.65067 6.67421 1.97962 
15 1 9.51796 6.67449 2.846 
19 1 12.3191 6.68461 5.63354 
20 1 11.3465 6.67548 4.67146 
21 1 10.4768 6.67435 3.8038 
37 1 6.68461 12.3191 5.63354 
38 1 6.67548 11.3465 4.67146 
39 1 6.67435 10.4768 3.8038 
43 1 6.68486 7.68885 1.03007 
44 1 6.67421 8.65067 1.97962 
45 1 6.67449 9.51796 2.846 
ITEM: TIMESTEP
50
ITEM: NUMBER OF ATOMS
72
ITEM: BOX BOUNDS pp pp pp
0.0000000000000000e+00 1.3344799999999999e+01
0.0000000000000000e+00 1.3344799999999999e+01
0.0000000000000000e+00 1.3344799999999999e+01
ITEM: ATOMS id type x y z 
4 1 0.0293363 5.66089 7.71045 
5 1 0.0182095 4.69849 8.66604 
6 1 -0.00316419 3.82065 9.52589 
10 1 -0.000327052 1.03412 12.3105 
11 1 0.00408793 1.99297 11.3473 
12 1 -0.00323298 2.86517 10.4815 
52 1 5.66089 0.0293363 7.71045 
53 1 4.69849 0.0182095 8.66604 
54 1 3.82065 -0.00316419 9.52589 
58 1 1.03412 -0.000327052 12.3105 
59 1 1.99297 0.00408793 11.3473 
60 1 2.86517 -0.00323298 10.4815 
28 1 5.66089 7.71045 0.0293362 
29 1 4.69849 8.66604 0.0182095 
30 1 3.82065 9.52589 -0.00316419 
34 1 1.03412 12.3105 -0.000327029 
35 1 1.99297 11.3473 0.00408794 
36 1 2.86517 10.4815 -0.00323298 
40 1 0.0293364 7.71044 5.66089 
41 1 0.0182092 8.66604 4.6985 
42 1 -0.00316404 9.52589 3.82065 
46 1 -0.000327033 12.3105 1.03412 
47 1 0.00408781 11.3473 1.99297 
48 1 -0.00323286 10.4815 2.86517 
25 1 1.02883 7.68489 6.68787 
26 1 1.97869 8.64425 6.67919 
27 1 2.84342 9.51534 6.67341 
31 1 5.63431 12.3179 6.68265 
32 1 4.66655 11.3467 6.68019 
33 1 3.80093 10.4738 6.67411 
49 1 5.63431 6.68265 12.3179 
50 1 4.66655 6.68019 11.3467 
51 1 3.80093 6.67411 10.4738 
55 1 1.02883 6.68787 7.68489 
56 1 1.97869 6.67919 8.64425 
57 1 2.84342 6.67341 9.51534 
16 1 7.71044 0.0293364 5.66089 
17 1 8.66604 0.0182092 4.6985 
18 1 9.52589 -0.00316404 3.82065 
22 1 12.3105 -0.000327033 1.03412 
23 1 11.3473 0.00408781 1.99297 
24 1 10.4815 -0.00323286 2.86517 
64 1 7.71045 5.66089 0.0293362 
65 1 8.66604 4.69849 0.0182095 
66 1 9.52589 3.82065 -0.00316419 
70 1 12.3105 1.03412 -0.000327029 
71 1 11.3473 1.99297 0.00408794 
72 1 10.4815 2.86517 -0.00323298 
1 1 6.68787 1.02883 7.68489 
2 1 6.67919 1.97869 8.64425 
3 1 6.67341 2.84342 9.51534 
7 1 6.68265 5.63431 12.3179 
8 1 6.68019 4.66655 11.3467 
9 1 6.67411 3.80093 10.4738 
61 1 12.3179 5.63431 6.68265 
62 1 11.3467 4.66655 6.68019 
63 1 10.4738 3.80093 6.67411 
67 1 7.68489 1.02883 6.68787 
68 1 8.64425 1.97869 6.67919 
69 1 9.51534 2.84342 6.67341 
13 1 7.68489 6.68787 1.02883 
14 1 8.64425 6.67919 1.97869 
15 1 9.51534 6.67341 2.84342 
19 1 12.3179 6.68265 5.63431 
20 1 11.3467 6.68019 4.66655 
21 1 10.4738 6.67411 3.80093 
37 1 6.68265 12.3179 5.63431 
38 1 6.68019 11.3467 4.66655 
39 1 6.67411 10.4738 3.80093 
43 1 6.68787 7.68489 1.02883 
44 1 6.67919 8.64425 1.97869 
45 1 6.67341 9.51534 2.84342 
ITEM: TIMESTEP
60
ITEM: NUMBER OF ATOMS
72
ITEM: BOX BOUNDS pp pp pp
0.0000000000000000e+00 1.3344799999999999e+01
0.0000000000000000e+00 1.3344799999999999e+01
0.0000000000000000e+00 1.3344799999999999e+01
ITEM: ATOMS id type x y z 
4 1 0.030228 5.66616 7.70347 
5 1 0.0363529 4.71475 8.6698 
6 1 -0.00743886 3.82704 9.51861 
10 1 0.000618163 1.04286 12.3035 
11 1 0.00315949 2.00114 11.3368 
12 1 -0.00658204 2.87272 10.47 
52 1 5.66616 0.030228 7.70347 
53 1 4.71475 0.0363529 8.6698 
54 1 3.82704 -0.00743886 9.51861 
58 1 1.04286 0.000618163 12.3035 
59 1 2.00114 0.00315949 11.3368 
60 1 2.87272 -0.00658204 10.47 
28 1 5.66616 7.70347 0.030228 
29 1 4.71475 8.6698 0.0363529 
30 1 3.82704 9.51861 -0.00743885 
34 1 1.04286 12.3035 0.000618584 
35 1 2.00114 11.3368 0.00315955 
36 1 2.87272 10.47 -0.00658204 
40 1 0.0302289 7.70347 5.66615 
41 1 0.0363507 8.6698 4.71475 
42 1 -0.00743775 9.51861 3.82703 
46 1 0.000618053 12.3035 1.04286 
47 1 0.00315928 11.3368 2.00114 
48 1 -0.00658193 10.47 2.87272 
25 1 1.02654 7.68112 6.6898 
26 1 1.9813 8.63733 6.68763 
27 1 2.84095 9.51195 6.67136 
31 1 5.6352 12.3141 6.67835 
32 1 4.65708 11.3474 6.68926 
33 1 3.79686 10.4705 6.67224 
49 1 5.6352 6.67835 12.3141 
50 1 4.65708 6.68926 11.3474 
51 1 3.79686 6.67224 10.4705 
55 1 1.02654 6.6898 7.68112 
56 1 1.9813 6.68763 8.63733 
57 1 2.84095 6.67136 9.51195 
16 1 7.70347 0.0302289 5.66615 
17 1 8.6698 0.0363507 4.71475 
18 1 9.51861 -0.00743775 3.82703 
22 1 12.3035 0.000618053 1.04286 
23 1 11.3368 0.00315928 2.00114 
24 1 10.47 -0.00658193 2.87272 
64 1 7.70347 5.66616 0.030228 
65 1 8.6698 4.71475 0.0363529 
66 1 9.51861 3.82704 -0.00743885 
70 1 12.3035 1.04286 0.000618584 
71 1 11.3368 2.00114 0.00315955 
72 1 10.47 2.87272 -0.00658204 
1 1 6.6898 1.02654 7.68112 
2 1 6.68763 1.9813 8.63733 
3 1 6.67136 2.84095 9.51195 
7 1 6.67835 5.6352 12.3141 
8 1 6.68926 4.65708 11.3474 
9 1 6.67224 3.79686 10.4705 
61 1 12.3141 5.6352 6.67835 
62 1 11.3474 4.65708 6.68926 
63 1 10.4705 3.79686 6.67224 
67 1 7.68112 1.02654 6.6898 
68 1 8.63733 1.9813 6.68763 
69 1 9.51195 2.84095 6.67136 
13 1 7.68112 6.6898 1.02654 
14 1 8.63733 6.68763 1.9813 
15 1 9.51195 6.67136 2.84095 
19 1 12.3141 6.67835 5.6352 
20 1 11.3474 6.68926 4.65708 
21 1 10.4705 6.67224 3.79686 
37 1 6.67835 12.3141 5.6352 
38 1 6.68926 11.3474 4.65708 
39 1 6.67224 10.4705 3.79686 
43 1 6.6898 7.68112 1.02654 
44 1 6.68763 8.63733 1.9813 
45 1 6.67136 9.51195 2.84095 
ITEM: TIMESTEP
70
ITEM: NUMBER OF ATOMS
72
ITEM: BOX BOUNDS pp pp pp
0.0000000000000000e+00 1.3344799999999999e+01
0.0000000000000000e+00 1.3344799999999999e+01
0.0000000000000000e+00 1.3344799999999999e+01
ITEM: ATOMS id type x y z 
4 1 0.0283561 5.67013 7.69713 
5 1 0.0468775 4.72361 8.67027 
6 1 -0.0103196 3.83185 9.51364 
10 1 0.00139926 1.04282 12.3052 
11 1 0.00227813 2.00221 11.3343 
12 1 -0.00985303 2.8727 10.4665 
52 1 5.67013 0.0283561 7.69713 
53 1 4.72361 0.0468775 8.67027 
54 1 3.83185 -0.0103196 9.51364 
58 1 1.04282 0.00139926 12.3052 
59 1 2.00221 0.00227813 11.3343 
60 1 2.8727 -0.00985303 10.4665 
28 1 5.67013 7.69713 0.0283559 
29 1 4.72361 8.67027 0.0468775 
30 1 3.83185 9.51364 -0.0103196 
34 1 1.04282 12.3052 0.00139825 
35 1 2.00221 11.3343 0.00227812 
36 1 2.8727 10.4665 -0.00985304 
40 1 0.0283554 7.69713 5.67013 
41 1 0.0468791 8.67027 4.72361 
42 1 -0.0103205 9.51364 3.83185 
46 1 0.00139799 12.3052 1.04282 
47 1 0.00227769 11.3343 2.00221 
48 1 -0.00985287 10.4665 2.8727 
25 1 1.02484 7.67673 6.6934 
26 1 1.98267 8.63233 6.69274 
27 1 2.84056 9.51046 6.66922 
31 1 5.62954 12.311 6.68168 
32 1 4.65485 11.3508 6.69373 
33 1 3.79576 10.4714 6.67128 
49 1 5.62954 6.68168 12.311 
50 1 4.65485 6.69373 11.3508 
51 1 3.79576 6.67128 10.4714 
55 1 1.02484 6.6934 7.67673 
56 1 1.98267 6.69274 8.63233 
57 1 2.84056 6.66922 9.51046 
16 1 7.69713 0.0283554 5.67013 
17 1 8.67027 0.0468791 4.72361 
18 1 9.51364 -0.0103205 3.83185 
22 1 12.3052 0.00139799 1.04282 
23 1 11.3343 0.00227769 2.00221 
24 1 10.4665 -0.00985287 2.8727 
64 1 7.69713 5.67013 0.0283559 
65 1 8.67027 4.72361 0.0468775 
66 1 9.51364 3.83185 -0.0103196 
70 1 12.3052 1.04282 0.00139825 
71 1 11.3343 2.00221 0.00227812 
72 1 10.4665 2.8727 -0.00985304 
1 1 6.6934 1.02484 7.67673 
2 1 6.69274 1.98267 8.63233 
3 1 6.66922 2.84056 9.51046 
7 1 6.68168 5.62954 12.311 
8 1 6.69373 4.65485 11.3508 
9 1 6.67128 3.79576 10.4714 
61 1 12.311 5.62954 6.68168 
62 1 11.3508 4.65485 6.69373 
63 1 10.4714 3.79576 6.67128 
67 1 7.67673 1.02484 6.6934 
68 1 8.63233 1.98267 6.69274 
69 1 9.51046 2.84056 6.66922 
13 1 7.67673 6.6934 1.02484 
14 1 8.63233 6.69274 1.98267 
15 1 9.51046 6.66922 2.84056 
19 1 12.311 6.68168 5.62954 
20 1 11.3508 6.69373 4.65485 
21 1 10.4714 6.67128 3.79576 
37 1 6.68168 12.311 5.62954 
38 1 6.69373 11.3508 4.65485 
39 1 6.67128 10.4714 3.79576 
43 1 6.6934 7.67673 1.02484 
44 1 6.69274 8.63233 1.98267 
45 1 6.66922 9.51046 2.84056 
ITEM: TIMESTEP
80
ITEM: NUMBER OF ATOMS
72
ITEM: BOX BOUNDS pp pp pp
0.0000000000000000e+00 1.3344799999999999e+01
0.0000000000000000e+00 1.3344799999999999e+01
0.0000000000000000e+00 1.3344799999999999e+01
ITEM: ATOMS id type x y z 
4 1 0.0325048 5.67274 7.69576 
5 1 0.0683718 4.73661 8.68 
6 1 -0.0143922 3.8339 9.5087 
10 1 0.00396114 1.04484 12.3073 
11 1 -0.000122663 2.00185 11.3315 
12 1 -0.0199012 2.86974 10.4615 
52 1 5.67274 0.0325048 7.69576 
53 1 4.73661 0.0683718 8.68 
54 1 3.8339 -0.0143922 9.5087 
58 1 1.04484 0.00396114 12.3073 
59 1 2.00185 -0.000122662 11.3315 
60 1 2.86974 -0.0199012 10.4615 
28 1 5.67274 7.69576 0.0325055 
29 1 4.73661 8.68 0.0683719 
30 1 3.8339 9.5087 -0.0143923 
34 1 1.04484 12.3073 0.00395592 
35 1 2.00185 11.3315 -0.000123704 
36 1 2.86974 10.4615 -0.019901 
40 1 0.0325066 7.69576 5.67274 
41 1 0.0683701 8.68 4.73662 
42 1 -0.0143913 9.5087 3.8339 
46 1 0.00395009 12.3073 1.04485 
47 1 -0.00012529 11.3315 2.00185 
48 1 -0.019901 10.4615 2.86974 
25 1 1.02539 7.68009 6.69289 
26 1 1.98559 8.62208 6.7028 
27 1 2.83568 9.50292 6.66362 
31 1 5.63485 12.3078 6.67525 
32 1 4.64484 11.3531 6.70361 
33 1 3.78861 10.4695 6.66854 
49 1 5.63485 6.67524 12.3078 
50 1 4.64484 6.70361 11.3531 
51 1 3.78861 6.66854 10.4695 
55 1 1.02539 6.69289 7.68009 
56 1 1.98559 6.7028 8.62208 
57 1 2.83568 6.66362 9.50292 
16 1 7.69576 0.0325066 5.67274 
17 1 8.68 0.0683701 4.73662 
18 1 9.5087 -0.0143913 3.8339 
22 1 12.3073 0.00395009 1.04485 
23 1 11.3315 -0.00012529 2.00185 
24 1 10.4615 -0.019901 2.86974 
64 1 7.69576 5.67274 0.0325055 
65 1 8.68 4.73661 0.0683719 
66 1 9.5087 3.8339 -0.0143923 
70 1 12.3073 1.04484 0.00395592 
71 1 11.3315 2.00185 -0.000123705 
72 1 10.4615 2.86974 -0.019901 
1 1 6.69289 1.02539 7.68009 
2 1 6.7028 1.98559 8.62208 
3 1 6.66362 2.83568 9.50292 
7 1 6.67524 5.63485 12.3078 
8 1 6.70361 4.64484 11.3531 
9 1 6.66854 3.78861 10.4695 
61 1 12.3078 5.63485 6.67525 
62 1 11.3531 4.64484 6.70361 
63 1 10.4695 3.78861 6.66854 
67 1 7.68009 1.02539 6.69289 
68 1 8.62208 1.98559 6.7028 
69 1 9.50292 2.83568 6.66362 
13 1 7.68009 6.69289 1.02539 
14 1 8.62208 6.7028 1.98559 
15 1 9.50292 6.66362 2.83568 
19 1 12.3078 6.67524 5.63485 
20 1 11.3531 6.70361 4.64484 
21 1 10.4695 6.66854 3.78861 
37 1 6.67524 12.3078 5.63485 
38 1 6.70361 11.3531 4.64484 
39 1 6.66854 10.4695 3.78861 
43 1 6.69289 7.68009 1.02539 
44 1 6.7028 8.62208 1.98559 
45 1 6.66362 9.50292 2.83568 
ITEM: TIMESTEP
90
ITEM: NUMBER OF ATOMS
72
ITEM: BOX BOUNDS pp pp pp
0.0000000000000000e+00 1.3344799999999999e+01
0.0000000000000000e+00 1.3344799999999999e+01
0.0000000000000000e+00 1.3344799999999999e+01
ITEM: ATOMS id type x y z 
4 1 0.0276453 5.67212 7.68911 
5 1 0.0920716 4.74958 8.69008 
6 1 -0.0186706 3.83649 9.50389 
10 1 0.00723456 1.0471 12.3114 
11 1 -0.00392487 2.00124 11.3279 
12 1 -0.0328342 2.86564 10.4552 
52 1 5.67212 0.0276453 7.68911 
53 1 4.74958 0.0920716 8.69008 
54 1 3.83649 -0.0186706 9.50389 
58 1 1.0471 0.00723456 12.3114 
59 1 2.00124 -0.00392486 11.3279 
60 1 2.86564 -0.0328342 10.4552 
28 1 5.67213 7.68911 0.0276455 
29 1 4.74958 8.69008 0.0920718 
30 1 3.83649 9.50389 -0.0186708 
34 1 1.0471 12.3114 0.00722531 
35 1 2.00124 11.3279 -0.00392814 
36 1 2.86564 10.4552 -0.0328338 
40 1 0.0276458 7.68911 5.67212 
41 1 0.0920706 8.69008 4.74958 
42 1 -0.0186701 9.50388 3.83649 
46 1 0.00721608 12.3114 1.04711 
47 1 -0.00393204 11.3279 2.00124 
48 1 -0.0328333 10.4552 2.86564 
25 1 1.01957 7.67474 6.69511 
26 1 1.99139 8.61277 6.71447 
27 1 2.83619 9.50083 6.65647 
31 1 5.63176 12.3042 6.67736 
32 1 4.63717 11.3591 6.7136 
33 1 3.78672 10.4735 6.66576 
49 1 5.63176 6.67736 12.3042 
50 1 4.63717 6.7136 11.3591 
51 1 3.78672 6.66576 10.4735 
55 1 1.01957 6.69511 7.67474 
56 1 1.99139 6.71447 8.61277 
57 1 2.83619 6.65647 9.50083 
16 1 7.68911 0.0276458 5.67212 
17 1 8.69008 0.0920706 4.74958 
18 1 9.50388 -0.0186701 3.83649 
22 1 12.3114 0.00721608 1.04711 
23 1 11.3279 -0.00393204 2.00124 
24 1 10.4552 -0.0328333 2.86564 
64 1 7.68911 5.67213 0.0276455 
65 1 8.69008 4.74958 0.0920718 
66 1 9.50389 3.83649 -0.0186708 
70 1 12.3114 1.0471 0.00722531 
71 1 11.3279 2.00124 -0.00392814 
72 1 10.4552 2.86564 -0.0328338 
1 1 6.69511 1.01957 7.67474 
2 1 6.71447 1.99139 8.61277 
3 1 6.65647 2.83619 9.50083 
7 1 6.67736 5.63176 12.3042 
8 1 6.7136 4.63717 11.3591 
9 1 6.66576 3.78672 10.4735 
61 1 12.3042 5.63176 6.67736 
62 1 11.3591 4.63717 6.7136 
63 1 10.4735 3.78672 6.66576 
67 1 7.67474 1.01957 6.69511 
68 1 8.61277 1.99139 6.71447 
69 1 9.50083 2.83619 6.65647 
13 1 7.67474 6.69511 1.01957 
14 1 8.61277 6.71447 1.99139 
15 1 9.50083 6.65647 2.83619 
19 1 12.3042 6.67736 5.63176 
20 1 11.3591 6.7136 4.63717 
21 1 10.4735 6.66576 3.78672 
37 1 6.67736 12.3042 5.63176 
38 1 6.7136 11.3591 4.63717 
39 1 6.66576 10.4735 3.78672 
43 1 6.69511 7.67474 1.01957 
44 1 6.71447 8.61277 1.99139 
45 1 6.65647 9.50083 2.83619 
ITEM: TIMESTEP
100
ITEM: NUMBER OF ATOMS
72
ITEM: BOX BOUNDS pp pp pp
0.0000000000000000e+00 1.3344799999999999e+01
0.0000000000000000e+00 1.3344799999999999e+01
0.0000000000000000e+00 1.3344799999999999e+01
ITEM: ATOMS id type x y z 
4 1 0.0267964 5.66661 7.69283 
5 1 0.102337 4.75039 8.69727 
6 1 -0.0171929 3.83434 9.50657 
10 1 0.0122776 1.05195 12.3156 
11 1 -0.0107851 1.99924 11.3276 
12 1 -0.0487692 2.85744 10.4489 
52 1 5.66661 0.0267964 7.69283 
53 1 4.75039 0.102337 8.69727 
54 1 3.83434 -0.0171929 9.50657 
58 1 1.05195 0.0122776 12.3156 
59 1 1.99924 -0.0107851 11.3276 
60 1 2.85744 -0.0487692 10.4489 
28 1 5.66661 7.69283 0.026796 
29 1 4.75039 8.69728 0.102337 
30 1 3.83434 9.50657 -0.0171922 
34 1 1.05195 12.3157 0.0122778 
35 1 1.99924 11.3276 -0.0107915 
36 1 2.85744 10.4489 -0.0487682 
40 1 0.0267953 7.69283 5.66661 
41 1 0.102339 8.69727 4.75039 
42 1 -0.0171922 9.50656 3.83434 
46 1 0.0122779 12.3156 1.05195 
47 1 -0.0107989 11.3276 1.99925 
48 1 -0.0487677 10.4489 2.85744 
25 1 1.01751 7.6755 6.69375 
26 1 1.99602 8.61074 6.71884 
27 1 2.83742 9.50227 6.65013 
31 1 5.63296 12.3045 6.67864 
32 1 4.63595 11.3638 6.71696 
33 1 3.78546 10.4754 6.66274 
49 1 5.63296 6.67864 12.3045 
50 1 4.63595 6.71696 11.3638 
51 1 3.78546 6.66274 10.4754 
55 1 1.01751 6.69375 7.6755 
56 1 1.99602 6.71884 8.61074 
57 1 2.83742 6.65013 9.50227 
16 1 7.69283 0.0267953 5.66661 
17 1 8.69727 0.102339 4.75039 
18 1 9.50656 -0.0171922 3.83434 
22 1 12.3156 0.0122779 1.05195 
23 1 11.3276 -0.0107989 1.99925 
24 1 10.4489 -0.0487677 2.85744 
64 1 7.69283 5.66661 0.026796 
65 1 8.69728 4.75039 0.102337 
66 1 9.50657 3.83434 -0.0171922 
70 1 12.3157 1.05195 0.0122778 
71 1 11.3276 1.99924 -0.0107915 
72 1 10.4489 2.85744 -0.0487682 
1 1 6.69375 1.01751 7.6755 
2 1 6.71884 1.99602 8.61074 
3 1 6.65013 2.83742 9.50227 
7 1 6.67864 5.63296 12.3045 
8 1 6.71696 4.63595 11.3638 
9 1 6.66274 3.78546 10.4754 
61 1 12.3045 5.63296 6.67864 
62 1 11.3638 4.63595 6.71696 
63 1 10.4754 3.78546 6.66274 
67 1 7.6755 1.01751 6.69375 
68 1 8.61074 1.99602 6.71884 
69 1 9.50227 2.83742 6.65013 
13 1 7.6755 6.69375 1.01751 
14 1 8.61074 6.71884 1.99602 
15 1 9.50227 6.65013 2.83742 
19 1 12.3045 6.67864 5.63296 
20 1 11.3638 6.71696 4.63595 
21 1 10.4754 6.66274 3.78546 
37 1 6.67864 12.3045 5.63296 
38 1 6.71696 11.3638 4.63595 
39 1 6.66274 10.4754 3.78546 
43 1 6.69375 7.6755 1.01751 
44 1 6.71884 8.61074 1.99602 
45 1 6.65013 9.50227 2.83742 
ITEM: TIMESTEP
110
ITEM: NUMBER OF ATOMS
72
ITEM: BOX BOUNDS pp pp pp
0.0000000000000000e+00 1.3344799999999999e+01
0.0000000000000000e+00 1.3344799999999999e+01
0.0000000000000000e+00 1.3344799999999999e+01
ITEM: ATOMS id type x y z 
4 1 0.0260294 5.66582 7.69185 
5 1 0.108845 4.75316 8.70052 
6 1 -0.0154121 3.83435 9.50585 
10 1 0.0168992 1.05604 12.3201 
11 1 -0.0171495 1.99904 11.3269 
12 1 -0.0614699 2.85089 10.4425 
52 1 5.66582 0.0260294 7.69185 
53 1 4.75316 0.108845 8.70052 
54 1 3.83435 -0.0154121 9.50585 
58 1 1.05604 0.0168992 12.3201 
59 1 1.99904 -0.0171495 11.3269 
60 1 2.85089 -0.0614699 10.4425 
28 1 5.66582 7.69186 0.0260286 
29 1 4.75316 8.70052 0.108845 
30 1 3.83435 9.50585 -0.0154105 
34 1 1.05604 12.3201 0.0168977 
35 1 1.99904 11.3269 -0.0171555 
36 1 2.85089 10.4425 -0.0614695 
40 1 0.026029 7.69186 5.66582 
41 1 0.108845 8.70052 4.75316 
42 1 -0.0154088 9.50584 3.83435 
46 1 0.0168962 12.3201 1.05604 
47 1 -0.0171623 11.3269 1.99904 
48 1 -0.0614699 10.4425 2.85089 
25 1 1.01812 7.67507 6.69571 
26 1 1.99825 8.60932 6.72103 
27 1 2.83697 9.50225 6.64586 
31 1 5.6332 12.3045 6.68014 
32 1 4.63575 11.3662 6.71818 
33 1 3.78712 10.4792 6.66043 
49 1 5.6332 6.68014 12.3045 
50 1 4.63575 6.71818 11.3662 
51 1 3.78712 6.66043 10.4792 
55 1 1.01812 6.69571 7.67507 
56 1 1.99825 6.72103 8.60932 
57 1 2.83697 6.64586 9.50225 
16 1 7.69186 0.026029 5.66582 
17 1 8.70052 0.108845 4.75316 
18 1 9.50584 -0.0154088 3.83435 
22 1 12.3201 0.0168962 1.05604 
23 1 11.3269 -0.0171623 1.99904 
24 1 10.4425 -0.0614699 2.85089 
64 1 7.69186 5.66582 0.0260286 
65 1 8.70052 4.75316 0.108845 
66 1 9.50585 3.83435 -0.0154105 
70 1 12.3201 1.05604 0.0168977 
71 1 11.3269 1.99904 -0.0171555 
72 1 10.4425 2.85089 -0.0614695 
1 1 6.69571 1.01812 7.67507 
2 1 6.72103 1.99825 8.60932 
3 1 6.64586 2.83697 9.50225 
7 1 6.68014 5.6332 12.3045 
8 1 6.71818 4.63575 11.3662 
9 1 6.66043 3.78712 10.4792 
61 1 12.3045 5.6332 6.68014 
62 1 11.3662 4.63575 6.71818 
63 1 10.4792 3.78712 6.66043 
67 1 7.67507 1.01812 6.69571 
68 1 8.60932 1.99825 6.72103 
69 1 9.50225 2.83697 6.64586 
13 1 7.67507 6.69571 1.01812 
14 1 8.60932 6.72103 1.99825 
15 1 9.50225 6.64586 2.83697 
19 1 12.3045 6.68014 5.6332 
20 1 11.3662 6.71818 4.63575 
21 1 10.4792 6.66043 3.78712 
37 1 6.68014 12.3045 5.6332 
38 1 6.71818 11.3662 4.63575 
39 1 6.66043 10.4792 3.78712 
43 1 6.69571 7.67507 1.01812 
44 1 6.72103 8.60932 1.99825 
45 1 6.64586 9.50225 2.83697 
ITEM: TIMESTEP
120
ITEM: NUMBER OF ATOMS
72
ITEM: BOX BOUNDS pp pp pp
0.0000000000000000e+00 1.3344799999999999e+01
0.0000000000000000e+00 1.3344799999999999e+01
0.0000000000000000e+00 1.3344799999999999e+01
ITEM: ATOMS id type x y z 
4 1 0.0398053 5.6647 7.70529 
5 1 0.172726 4.76477 8.73651 
6 1 0.00632585 3.82733 9.5092 
10 1 0.0683416 1.10139 12.373 
11 1 -0.0889241 1.9982 11.3233 
12 1 -0.188849 2.77121 10.3749 
52 1 5.6647 0.0398053 7.70529 
53 1 4.76477 0.172726 8.73651 
54 1 3.82733 0.00632585 9.5092 
58 1 1.10139 0.0683416 12.373 
59 1 1.9982 -0.0889241 11.3233 
60 1 2.77121 -0.188849 10.3749 
28 1 5.66472 7.70528 0.0398102 
29 1 4.76477 8.73651 0.17273 